<?xml version="1.0"?><VTKFile type="PolyData" version="0.1" byte_order="LittleEndian">
<PolyData>
<Piece NumberOfLines="2450" NumberOfPoints="42281">
<PointData Scalars=" PointData">
<DataArray type="Float32" Name="time" NumberOfComponents="1" format="ascii" >
0 0.0551137 0.110317 0.165611 0.220994 0.276468 0.332034 0.38769 0.443438 0.499277 0.555209 0.55521 0.611234 0.667349 0.723559 0.779862 0.779863 0.836259 0.89275 0.892754 0.949338 1.00602 1.00602 1.06279 1.11966 1.17663 1.23369 1.23369 1.29084 1.3481 1.40545 1.46289 1.52044 1.57808 1.63582 1.69366 1.69366 1.7516 1.80963 1.86777 1.92601 1.92601 1.98434 2.04278 2.04278 2.10132 2.15996 2.2187 2.27754 2.27754 2.33649 2.39553 2.45468 2.51394 2.51394 2.57329 2.63275 2.69232 2.75199 2.81176 2.87164 2.93163 2.99172 3.05192 3.11222 3.17263 3.23316 3.23316 3.29379 3.35453 3.41537 3.47633 3.47633 3.5374 3.59858 3.59858 3.65986 3.72126 3.72126 3.78277 3.84439 3.90612 3.96797 4.02993 4.09199 4.15418 4.21648 4.21648 4.2789 4.34143 4.34143 4.40407 4.46684 4.46684 4.52971 4.59271 4.59271 4.65582 4.71905 4.7824 4.84586 4.90945 4.97315 4.97315 5.03698 5.10092 5.16499 5.22917 5.29348 5.3579 5.42246 5.48713 5.55193 5.61685 5.6819 5.74707 5.74707 5.81237 5.87779 5.94335 6.00902 6.07482 6.14076 6.20682 6.27301 6.27301 6.33933 6.40578 6.40578 6.47236 6.53906 6.60591 6.67288 6.73999 6.80723 6.80723 6.8746 6.94211 7.00975 7.07753 7.14544 7.21349 7.28167 7.35 7.35 7.41846 7.48706 7.48707 7.5558 7.62468 7.62468 7.6937 7.76286 7.83216 7.9016 7.97119 8.04091 8.11078 8.1808 8.1808 8.25096 8.32126 8.32127 8.39172 8.46232 8.46232 8.53306 8.60396 8.675 8.74618 8.81752 8.88901 8.96065 9.03245 9.03245 9.1044 9.1765 9.1765 9.24875 9.32116 9.32116 9.39372 9.46644 9.53931 9.61234 9.68553 9.75887 9.75887 9.83238 9.90604 9.90605 9.97987 10.0539 10.0539 10.128 10.2023 10.2768 10.3514 10.3514 10.4262 10.5012 10.5012 10.5763 10.6516 10.6516 10.7271 10.8027 10.8785 10.9545 11.0307 11.107 11.1835 11.2601 11.337 11.414 11.414 11.4912 11.5685 11.5685 11.6461 11.7238 11.8017 11.8797 11.8797 11.958 12.0364 12.0364 12.115 12.1938 12.1939 12.2728 12.352 12.4313 12.5109 12.5109 12.5906 12.6705 12.7506 12.8309 12.9114 12.9921 12.9921 13.0729 13.154 13.2352 13.3167 13.3167 13.3983 13.4802 13.4802 13.5622 13.6444 13.6444 13.7269 13.8095 13.8095 13.8924 13.9754 14.0586 14.1421 14.1421 14.2258 14.3096 14.3096 14.3937 14.478 14.478 14.5625 14.6472 14.6472 14.7321 14.8172 14.9026 14.9881 15.0739 15.1599 15.2461 15.3325 15.4191 15.506 15.5931 15.6804 15.6804 15.768 15.8557 15.9437 16.032 16.032 16.1204 16.2091 16.2091 16.298 16.3872 16.4766 16.5662 16.5662 16.656 16.7461 16.8365 16.9271 17.0179 17.1089 17.1089 17.2003 17.2918 17.3836 17.4757 17.568 17.6605 17.6605 17.7534 17.8464 17.9397 18.0333 18.0333 18.1272 18.2213 18.2213 18.3156 18.4103 18.5051 18.6003 18.6957 18.7914 18.8874 18.9836 18.9836 19.0801 19.1769 19.1769 19.274 19.3713 19.4689 19.5668 19.665 19.7635 19.8622 19.9613 20.0606 20.1602 20.1602 20.2601 20.3604 20.3604 20.4609 20.5617 20.6628 20.7642 20.8659 20.9679 20.9679 21.0703 21.1729 21.2759 21.3791 21.4827 21.5866 21.6908 21.7954 21.7954 21.9002 22.0054 22.1109 22.2168 22.3229 22.4294 22.4294 22.5363 22.6435 22.6435 22.751 22.8588 22.967 23.0756 23.0756 23.1845 23.2938 23.2938 23.4034 23.5133 23.5133 23.6236 23.7343 23.7343 23.8454 23.9568 24.0685 24.1807 24.2932 24.4061 24.4061 24.5193 24.633 24.633 24.747 24.8614 24.9762 25.0914 25.207 25.323 25.323 25.4393 25.5561 25.6733 25.7909 25.9089 26.0273 26.1461 26.2653 26.385 26.505 26.6255 26.7465 26.7465 26.8679 26.9897 26.9897 27.1119 27.2346 27.3577 27.4813 27.6053 27.7298 27.8548 27.9802 27.9802 28.106 28.2324 28.3592 28.4865 28.6142 28.7425 28.7425 28.8712 29.0005 29.1302 29.2604 29.2604 29.3911 29.5223 29.6541 29.7863 29.9191 30.0524 30.1862 30.3206 30.4554 30.5909 30.5909 30.7268 30.8633 31.0004 31.138 31.2762 31.4149 31.5542 31.6941 31.8346 31.9756 31.9756 32.1173 32.2595 32.2595 32.4023 32.5458 32.6898 32.8345 32.9797 33.1256 33.1257 33.2722 33.4193 33.5672 33.7156 33.8647 34.0145 34.0145 34.1649 34.316 34.316 34.4678 34.6203 34.7734 34.9272 35.0818 35.237 35.393 35.5497 35.5497 35.7071 35.8653 36.0242 36.1838 36.3442 36.5053 36.5053 36.6672 36.8299 36.83 36.9934 37.1577 37.3228 37.4887 37.6554 37.8229 37.8229 37.9912 38.1604 38.3305 38.5013 38.6731 38.8457 39.0192 39.1937 39.1937 39.369 39.5452 39.5452 39.7223 39.9004 40.0794 40.2594 40.2594 40.4403 40.6222 40.8051 40.9889 41.1738 41.3597 41.5466 41.7345 41.7345 41.9235 42.1135 42.3046 42.4968 42.4969 42.6901 42.8845 42.8846 43.0801 43.2767 43.2767 43.4745 43.6735 43.8736 44.0749 44.0749 44.2775 44.4812 44.4812 44.6862 44.8924 44.8924 45.0999 45.3086 45.5187 45.73 45.73 45.9427 46.1567 46.1567 46.3721 46.5889 46.5889 46.807 47.0266 47.2476 47.47 47.694 47.9194 47.9194 48.1463 48.3747 48.6047 48.8362 48.8362 49.0694 49.3041 49.5405 49.7786 49.7786 50.0183 50.2598 50.503 50.7479 50.7479 50.9946 51.2431 51.4935 51.7457 51.7457 51.9998 52.2558 52.2558 52.5138 52.7737 52.7737 53.0357 53.2997 53.5658 53.8339 54.1042 54.3767 54.6513 54.9283 55.2075 55.489 55.489 55.7729 56.0591 56.3478 56.639 56.9327 57.229 57.229 57.5279 57.8294 57.8294 58.1337 58.4406 58.4407 58.7505 59.0631 59.3787 59.6972 59.6972 60 2.27753 2.99448 3.84149 4.87645 6.20729 8.07405 11.2269 26.4737 30 2.39553 2.9896 3.61005 4.25931 4.94019 5.65593 6.41029 7.20769 8.05332 8.95341 9.91545 10.9486 12.0642 13.2766 14.6043 16.0713 17.7104 19.5676 21.7098 24.2406 27.333 31.3094 36.8872 46.3076 60 2.51393 3.31741 4.26666 5.42655 6.91802 9.01011 12.5435 29.6307 30 2.63275 3.29853 3.99387 4.72149 5.48456 6.28669 7.13211 8.02575 8.97346 9.98219 11.0604 12.2182 13.4685 14.8273 16.3151 17.9592 19.7962 21.8776 24.2783 27.1146 30.5803 35.0367 41.2877 51.8452 60 2.75199 3.39539 4.06735 4.77052 5.50794 6.28311 7.10011 7.96372 8.87957 9.85439 10.8963 12.0152 13.2235 14.5366 15.9744 17.5633 19.3385 21.3499 23.67 26.4109 29.7601 34.0667 40.1076 50.3102 60 2.87164 3.64812 4.56546 5.68636 7.1277 9.14946 12.5641 29.0769 30 2.99172 3.83778 4.83733 6.05867 7.62918 9.83211 13.5527 30 3.11223 3.81329 4.54547 5.31165 6.11515 6.95979 7.85 8.791 9.78892 10.8511 11.9864 13.2056 14.5221 15.9529 17.5196 19.2508 21.1852 23.3768 25.9047 28.8913 32.5406 37.2332 43.8154 54.9323 60 3.23316 4.19052 5.32156 6.70357 8.48067 10.9734 15.1835 30 3.35453 4.14782 4.97632 5.84329 6.75249 7.70823 8.71556 9.78034 10.9095 12.1114 13.3961 14.7757 16.2654 17.8844 19.6572 21.6161 23.8049 26.2849 29.1454 32.5248 36.6542 41.964 49.4121 60 3.47634 4.18003 4.91495 5.68401 6.49052 7.33832 8.23187 9.1764 10.1781 11.2442 12.3838 13.6076 14.929 16.3651 17.9377 19.6754 21.617 23.8169 26.3543 29.3521 33.0151 37.7252 44.3321 55.4907 60 3.59858 4.44781 5.45111 6.67703 8.25343 10.4646 14.1992 30 3.72127 4.49973 5.41943 6.54321 7.98825 10 13.4088 29.2711 30 3.8444 4.48946 5.16314 5.86812 6.60743 7.38459 8.20369 9.06951 9.98771 10.965 12.0096 13.1314 14.3428 15.6593 17.1008 18.6937 20.4735 22.4901 24.8161 27.5641 30.9219 35.2395 41.2959 51.5248 60 3.96798 4.99035 6.1982 7.67407 9.57187 12.2339 16.7299 39.0038 40 4.09201 4.76232 5.55423 6.52187 7.76614 9.51146 12.4592 26.7142 30 4.2165 4.95641 5.83055 6.89867 8.27214 10.1987 13.4525 29.1878 30 4.34144 5.23171 6.28348 7.56864 9.22121 11.5393 15.4543 30 4.46685 5.11591 5.88273 6.8197 8.02453 9.71454 12.5689 26.3721 30 4.59272 5.29649 6.12793 7.14387 8.45025 10.2827 13.3776 28.3441 30 4.71906 5.5761 6.58863 7.82583 9.41673 11.6483 15.4172 30 4.84587 5.69303 6.5778 7.50365 8.47459 9.49525 10.571 11.7081 12.914 14.1975 15.5694 17.0427 18.6336 20.3625 22.2557 24.3477 26.6851 29.3335 32.3883 35.9972 40.407 46.0775 54.0314 60 4.97316 5.65809 6.46727 7.45602 8.72743 10.5108 13.5229 28.0888 30 5.10092 5.65636 6.23644 6.84346 7.48005 8.14923 8.85452 9.60005 10.3907 11.2322 12.1317 13.0976 14.1407 15.2742 16.5155 17.887 19.4196 21.1559 23.1588 25.525 28.4162 32.134 37.3489 46.1565 60 5.22917 5.84228 6.4826 7.15266 7.85535 8.59402 9.37255 10.1955 11.0682 11.9971 12.99 14.0562 15.2076 16.4588 17.829 19.343 21.0347 22.9513 25.1621 27.774 30.9655 35.0693 40.8257 50.5479 60 5.35791 6.14081 7.06573 8.19589 9.64915 11.6876 15.1305 30 5.48714 6.22484 6.99527 7.80149 8.64697 9.53574 10.4725 11.4626 12.5127 13.6304 14.825 16.1079 17.4932 18.9987 20.6473 22.469 24.5044 26.8105 29.4706 32.6132 36.4532 41.3909 48.3171 60 5.61687 6.1547 6.7164 7.30418 7.92059 8.56857 9.25151 9.9734 10.739 11.5538 12.4248 13.3601 14.3701 15.4677 16.6696 17.9978 19.4817 21.1631 23.1024 25.3936 28.1932 31.7931 36.8428 45.3712 60 5.74709 6.33025 6.93929 7.57661 8.24498 8.94756 9.68806 10.4708 11.3009 12.1844 13.1288 14.1429 15.2381 16.4282 17.7314 19.1715 20.7805 22.6035 24.7063 27.1906 30.2262 34.1295 39.6047 48.852 60 5.87781 6.58798 7.32966 8.10579 8.91972 9.77533 10.6771 11.6303 12.6412 13.7172 14.8672 16.1022 17.4359 18.8852 20.4722 22.2259 24.1854 26.4055 28.9663 31.9916 35.6883 40.4418 47.1095 58.3707 60 6.00903 6.72894 7.57945 8.61868 9.95502 11.8295 14.9953 30 6.14077 6.70832 7.30105 7.92132 8.57179 9.25557 9.97625 10.738 11.5459 12.4058 13.3249 14.3119 15.3777 16.536 17.8043 19.2058 20.7718 22.546 24.5925 27.0103 29.9646 33.7635 39.0922 48.0919 60 6.27302 7.10027 8.07759 9.27179 10.8074 12.9613 16.5992 30 6.40579 7.05452 7.73203 8.44101 9.18452 9.9661 10.7899 11.6606 12.584 13.5669 14.6174 15.7456 16.9639 18.2878 19.7375 21.3395 23.1294 25.1574 27.4967 30.2603 33.6371 37.9793 44.0701 54.3571 60 6.53908 7.36161 8.33337 9.52075 11.0476 13.1893 16.8064 30 6.6729 7.39368 8.24522 9.28571 10.6237 12.5004 15.6701 30 6.80725 7.68386 8.7195 9.98495 11.6122 13.8947 17.7497 37.1076 40 6.94213 7.53866 8.16166 8.8136 9.49729 10.216 10.9735 11.7742 12.6233 13.5271 14.4931 15.5305 16.6507 17.8682 19.2013 20.6743 22.3203 24.1851 26.3361 28.8774 31.9826 35.9754 41.5762 51.0355 60 7.07755 7.76303 8.47893 9.22808 10.0137 10.8396 11.71 12.6301 13.6058 14.6444 15.7544 16.9465 18.2338 19.6327 21.1646 22.8573 24.7487 26.8916 29.3633 32.2835 35.8517 40.4399 46.8758 57.7456 60 7.21351 7.93722 8.79222 9.83695 11.1804 13.0647 16.2473 30 7.35001 7.98452 8.73415 9.65011 10.8279 12.4801 15.2704 28.7642 30 7.48707 8.16864 8.88046 9.62534 10.4065 11.2276 12.0931 13.0079 13.9781 15.0107 16.1145 17.2998 18.5797 19.9707 21.4938 23.1769 25.0574 27.1881 29.6458 32.5493 36.0971 40.6592 47.0583 57.8661 60 7.62469 8.22194 8.8457 9.49843 10.1829 10.9025 11.6609 12.4626 13.3127 14.2176 15.1848 16.2235 17.3451 18.5639 19.8987 21.3735 23.0214 24.8885 27.0422 29.5865 32.6954 36.6931 42.3007 51.7714 60 7.76286 8.70572 9.81963 11.1807 12.9309 15.3859 19.5322 39.5835 40 7.90161 8.64598 9.52539 10.5999 11.9817 13.9199 17.1933 30 8.04092 8.7673 9.52592 10.3198 11.1523 12.0274 12.9498 13.9248 14.9587 16.0593 17.2356 18.4988 19.8629 21.3453 22.9686 24.7623 26.7665 29.0373 31.6565 34.751 38.5321 43.3941 50.214 60 8.1808 8.96848 9.89905 11.0361 12.4983 14.5492 18.0131 35.4592 40 8.32126 9.15098 10.1312 11.329 12.8692 15.0295 18.6783 37.2439 40 8.46231 9.36603 10.4337 11.7383 13.4158 15.7689 19.7431 39.0207 40 8.60396 9.20364 9.82994 10.4853 11.1726 11.8951 12.6566 13.4615 14.3151 15.2237 16.1948 17.2377 18.3639 19.5878 20.9279 22.4088 24.0634 25.9381 28.1005 30.6552 33.7768 37.7907 43.4211 52.9304 60 8.74618 9.55552 10.5117 11.68 13.1824 15.2897 18.8488 36.0861 40 8.88901 9.73294 10.73 11.9482 13.5148 15.7122 19.4234 37.7255 40 9.03245 9.55822 10.1073 10.6819 11.2845 11.918 12.5856 13.2913 14.0397 14.8363 15.6877 16.6021 17.5895 18.6625 19.8374 21.1358 22.5865 24.2301 26.126 28.3658 31.1026 34.6219 39.5583 47.8956 60 9.17649 9.99787 10.9682 12.154 13.6786 15.8173 19.4294 37.6611 40 9.32115 10.0518 10.915 11.9697 13.326 15.2284 18.4415 30 9.46643 10.1922 11.0496 12.0973 13.4444 15.3341 18.5257 30 9.61234 10.3936 11.2096 12.0634 12.9588 13.9001 14.8922 15.9409 17.0529 18.2367 19.5018 20.8606 22.3277 23.9222 25.6681 27.5974 29.7531 32.1955 35.0127 38.341 42.4078 47.6373 54.9726 60 9.75887 10.3757 11.0199 11.694 12.4009 13.144 13.9272 14.7551 15.6331 16.5676 17.5665 18.6391 19.7974 21.0562 22.4346 23.9578 25.6596 27.5878 29.812 32.4396 35.6503 39.7788 45.5699 55.3507 60 9.90605 10.5587 11.2404 11.9537 12.7018 13.4881 14.3169 15.193 16.122 17.1109 18.1679 19.3029 20.5286 21.8607 23.3192 24.931 26.7319 28.7723 31.1258 33.9063 37.3038 41.6725 47.8005 58.1504 60 10.0539 10.9235 11.951 13.2064 14.8208 17.0853 20.9098 39.4047 40 10.2023 10.8898 11.6079 12.3593 13.1472 13.9756 14.8486 15.7714 16.75 17.7917 18.9051 20.1007 21.3918 22.795 24.3314 26.0292 27.9262 30.0755 32.5546 35.4835 39.0623 43.6642 50.1193 60 10.3514 11.0744 11.9285 12.9721 14.3141 16.1964 19.3756 34.7553 40 10.5012 11.25 12.0321 12.8505 13.7088 14.611 15.5618 16.567 17.6329 18.7675 19.9801 21.2824 22.6887 24.217 25.8904 27.7396 29.8058 32.1468 34.847 38.0372 41.9352 46.9475 53.9783 60 10.6516 11.4208 12.3294 13.4397 14.8675 16.8701 20.2524 36.6092 40 10.8027 11.4734 12.1738 12.9067 13.6753 14.4833 15.3349 16.235 17.1896 18.2057 19.2917 20.458 21.7174 23.0861 24.5848 26.2408 28.0912 30.1877 32.606 35.4629 38.9538 43.4427 49.7392 60 10.9545 11.6538 12.3841 13.1484 13.9499 14.7924 15.6804 16.619 17.6144 18.6739 19.8063 21.0225 22.3357 23.7628 25.3256 27.0524 28.9819 31.1681 33.6896 36.6687 40.3088 44.9896 51.5552 60 11.107 11.8814 12.7964 13.9144 15.352 17.3685 20.7743 37.2444 40 11.2601 12.045 12.9724 14.1055 15.5625 17.6063 21.0581 37.7506 40 11.414 12.2169 13.1655 14.3247 15.8152 17.9059 21.437 38.513 40 11.5685 12.4099 13.4038 14.6184 16.1802 18.3708 22.0708 39.9633 40 11.7238 12.575 13.5808 14.8097 16.3899 18.6064 22.3501 40 11.8797 12.6738 13.612 14.7584 16.2325 18.3003 21.7925 38.6808 40 12.0364 12.9763 14.0867 15.4435 17.1882 19.6354 23.7687 40 12.1938 12.8744 13.5852 14.3291 15.1091 15.9291 16.7934 17.7069 18.6757 19.7069 20.8091 21.9927 23.2708 24.6598 26.1808 27.8615 29.7394 31.8671 34.3213 37.2207 40.7635 45.3192 51.7093 60 12.352 13.0768 13.9332 14.9796 16.3251 18.2125 21.4001 36.8153 40 12.5109 13.3597 14.3625 15.5879 17.1635 19.3737 23.1065 40 12.6705 13.2795 13.9156 14.5812 15.2793 16.013 16.7864 17.6039 18.4708 19.3936 20.3798 21.439 22.5828 23.8257 25.1868 26.6907 28.3712 30.2751 32.4713 35.0658 38.2361 42.3128 48.031 57.6887 60 12.8309 13.562 14.4258 15.4812 16.8384 18.7421 21.9574 37.5059 40 12.9921 13.5249 14.0814 14.6638 15.2745 15.9165 16.5932 17.3084 18.0669 18.8743 19.7372 20.6639 21.6646 22.7521 23.9429 25.2588 26.7291 28.3949 30.3164 32.5864 35.3602 38.927 43.93 52.3798 60 13.154 13.8579 14.6896 15.7058 17.0126 18.8455 21.9412 36.9119 40 13.3167 14.053 14.822 15.6267 16.4707 17.3578 18.2928 19.2811 20.3293 21.4449 22.6373 23.9178 25.3006 26.8033 28.4488 30.2672 32.2988 34.6007 37.2559 40.3927 44.2256 49.1542 56.0676 60 13.4802 14.259 15.1791 16.3034 17.7492 19.7771 23.2021 39.7653 40 13.6444 14.2758 14.9351 15.6251 16.3487 17.1094 17.911 18.7585 19.6571 20.6137 21.6361 22.7341 23.9197 25.2081 26.619 28.1781 29.9201 31.8938 34.1703 36.8599 40.1463 44.3722 50.2998 60 13.8095 14.4531 15.1252 15.8286 16.5662 17.3416 18.1589 19.0227 19.9388 20.9139 21.9562 23.0754 24.284 25.5975 27.0357 28.625 30.4008 32.4128 34.7335 37.4752 40.8253 45.1332 51.1758 60 13.9754 14.7716 15.7122 16.8616 18.3395 20.4126 23.9139 40 14.1421 14.6937 15.2698 15.8726 16.5048 17.1694 17.8698 18.6102 19.3954 20.2311 21.1243 22.0836 23.1195 24.2452 25.4779 26.84 28.362 30.0864 32.0754 34.4253 37.2965 40.9887 46.1676 54.9145 60 14.3096 15.0628 15.8495 16.6726 17.5359 18.4434 19.3998 20.4108 21.483 22.6242 23.8439 25.1538 26.5683 28.1055 29.7887 31.6487 33.727 36.0816 38.7976 42.0064 45.9271 50.9688 58.0406 60 14.478 15.0793 15.7073 16.3645 17.0537 17.7782 18.5418 19.349 20.2049 21.116 22.0898 23.1356 24.2649 25.4921 26.836 28.3209 29.9801 31.86 34.0284 36.5901 39.7203 43.7454 49.3913 58.9269 60 14.6471 15.2421 15.8634 16.5136 17.1954 17.9122 18.6676 19.4662 20.313 21.2144 22.1778 23.2124 24.3296 25.5438 26.8733 28.3424 29.9839 31.8438 33.989 36.5234 39.6202 43.6023 49.188 58.6219 60 14.8172 15.5492 16.414 17.4706 18.8294 20.7353 23.9543 39.521 40 14.9881 15.5814 16.2011 16.8496 17.5296 18.2444 18.9979 19.7943 20.6389 21.5378 22.4987 23.5306 24.6448 25.8557 27.1817 28.6469 30.284 32.1389 34.2784 36.8061 39.8947 43.8662 49.4371 58.8458 60 15.1598 16.048 17.0972 18.3793 20.028 22.3405 26.2461 40 15.3325 16.0564 16.9117 17.9567 19.3005 21.1855 24.369 39.7645 40 15.506 16.3423 17.3302 18.5374 20.0898 22.2672 25.9448 40 15.6804 16.3266 17.0015 17.7077 18.4483 19.2268 20.0474 20.9147 21.8346 22.8136 23.86 24.9838 26.1973 27.5161 28.9602 30.5559 32.3389 34.359 36.6891 39.4419 42.8056 47.1309 53.198 60 15.8557 16.5953 17.4692 18.5369 19.9098 21.8356 25.0882 40 16.0319 16.6137 17.2213 17.8571 18.5238 19.2247 19.9635 20.7443 21.5724 22.4539 23.3959 24.4077 25.5002 26.6874 27.9875 29.4241 31.0293 32.848 34.9457 37.4241 40.4524 44.3464 49.8084 59.0336 60 16.2091 16.8873 17.5955 18.3367 19.1139 19.931 20.7921 21.7024 22.6678 23.6952 24.7935 25.9729 27.2464 28.6304 30.146 31.8207 33.6919 35.8119 38.2573 41.1464 44.6765 49.2158 55.5831 60 16.3872 17.1988 18.1578 19.3295 20.8362 22.9496 26.5191 40 16.5662 17.2797 18.0249 18.8047 19.6225 20.4821 21.3882 22.3459 23.3616 24.4426 25.5981 26.839 28.1789 29.6351 31.2297 32.9917 34.9604 37.191 39.7639 42.8036 46.5178 51.2938 57.993 60 16.7461 17.339 17.9582 18.6062 19.2857 20 20.7529 21.5487 22.3926 23.2909 24.251 25.2821 26.3955 27.6055 28.9305 30.3946 32.0304 33.8839 36.0218 38.5475 41.6337 45.6022 51.1687 60 16.9271 17.7114 18.6381 19.7704 21.2263 23.2686 26.7179 40 17.1089 17.7926 18.5066 19.2538 20.0373 20.861 21.7291 22.6468 23.6199 24.6557 25.7628 26.9518 28.2356 29.6309 31.1587 32.8469 34.7333 36.8705 39.3357 42.2481 45.8069 50.3829 56.8018 60 17.2918 18.2755 19.4375 20.8575 22.6833 25.2445 29.5701 50 17.4757 18.062 18.6744 19.3152 19.9872 20.6936 21.4382 22.2252 23.0598 23.9482 24.8977 25.9174 27.0185 28.2151 29.5254 30.9733 32.5911 34.4241 36.5384 39.0363 42.0884 46.013 51.5181 60 17.6606 18.4462 19.3745 20.5086 21.9671 24.0128 27.4679 40 17.8464 18.5441 19.3684 20.3756 21.6706 23.4873 26.5554 40 18.0333 18.6799 19.4438 20.3772 21.5774 23.261 26.1044 39.8549 40 18.2213 19.0629 20.0573 21.2723 22.8347 25.0262 28.7276 47.0164 50 18.4102 19.2709 20.2877 21.5301 23.1277 25.3686 29.1534 47.9234 50 18.6003 19.3394 20.2125 21.2795 22.6514 24.5758 27.826 40 18.7914 19.4598 20.1579 20.8884 21.6545 22.4599 23.3086 24.2058 25.1573 26.17 27.2525 28.4149 29.6702 31.0343 32.5281 34.1787 36.023 38.1126 40.5229 43.3704 46.8498 51.324 57.5998 60 18.9836 19.704 20.5551 21.595 22.9323 24.808 27.976 40 19.1769 19.8544 20.6548 21.6329 22.8905 24.6546 27.6341 40 19.3713 20.1279 21.0217 22.1139 23.5183 25.4882 28.8153 45.3694 50 19.5668 20.4973 21.5967 22.94 24.6672 27.0901 31.1822 50 19.7635 20.5502 21.4797 22.6154 24.0758 26.1243 29.5841 46.3991 50 19.9613 20.6952 21.4618 22.264 23.1052 23.9895 24.9215 25.9067 26.9515 28.0636 29.2522 30.5286 31.907 33.405 35.0452 36.8577 38.8829 41.1775 43.8242 46.951 50.7717 55.6846 60 20.1602 20.8998 21.7735 22.8411 24.2138 26.1394 29.3916 45.1633 50 20.3604 21.4085 22.6467 24.1598 26.1053 28.8344 33.4435 50 20.5617 21.3161 22.2075 23.2966 24.6971 26.6616 29.9795 46.0245 50 20.7642 21.5207 22.3107 23.1375 24.0045 24.9159 25.8765 26.8919 27.9687 29.1149 30.3399 31.6555 33.0761 34.62 36.3105 38.1786 40.2658 42.6307 45.3585 48.5812 52.519 57.5825 60 20.9679 21.6612 22.3851 23.1427 23.9373 24.7724 25.6527 26.5831 27.5699 28.6202 29.7428 30.9483 32.2501 33.6649 35.214 36.9259 38.8386 41.0057 43.5053 46.4585 50.0669 54.707 60 21.1729 21.8823 22.7204 23.7444 25.0612 26.9083 30 44.4388 50 21.3791 22.1876 23.1428 24.3098 25.8106 27.9157 31.471 48.6643 50 21.5866 22.2264 22.8946 23.5938 24.3271 25.0979 25.9103 26.769 27.6797 28.649 29.6851 30.7977 31.9992 33.3049 34.7346 36.3145 38.0798 40.0798 42.3868 45.1123 48.4426 52.725 58.7319 60 21.7954 22.5444 23.3266 24.1452 25.0036 25.906 26.8571 27.8625 28.9287 30.0635 31.2764 32.579 33.9856 35.5142 37.188 39.0376 41.1042 43.4457 46.1466 49.3374 53.2363 58.2497 60 22.0054 22.6349 23.2924 23.9803 24.7018 25.4602 26.2596 27.1045 28.0006 28.9543 29.9737 31.0685 32.2506 33.5354 34.9421 36.4966 38.2335 40.2015 42.4714 45.1531 48.4299 52.6434 58.5538 60 22.2168 23.1543 24.2619 25.6153 27.3557 29.7968 33.9197 50 22.4295 23.0453 23.6886 24.3616 25.0675 25.8095 26.5916 27.4182 28.2949 29.228 30.2254 31.2965 32.453 33.71 35.0863 36.6072 38.3065 40.2318 42.4526 45.0763 48.2822 52.4047 58.1871 60 22.6435 23.3468 24.0814 24.8501 25.6562 26.5037 27.3968 28.3409 29.3421 30.4077 31.5467 32.77 34.0908 35.5263 37.0981 38.835 40.7757 42.9745 45.5108 48.5071 52.1684 56.8763 60 22.8589 23.5915 24.4571 25.5148 26.8749 28.7826 32.0046 47.5861 50 23.0756 23.6814 24.3142 24.9763 25.6706 26.4005 27.1698 27.983 28.8454 29.7633 30.7443 31.7979 32.9356 34.1721 35.5259 37.022 38.6936 40.5875 42.7721 45.353 48.5066 52.5617 58.2498 60 23.2938 23.8771 24.4863 25.1238 25.7923 26.4951 27.2358 28.0188 28.8491 29.7329 30.6775 31.6919 32.7873 33.9778 35.2814 36.7218 38.3313 40.1548 42.2582 44.7432 47.7796 51.684 57.1607 60 23.5133 24.1307 24.7755 25.4503 26.1579 26.9017 27.6857 28.5144 29.3932 30.3286 31.3284 32.4021 33.5615 34.8215 36.2012 37.7258 39.4293 41.3594 43.5857 46.2158 49.4296 53.5621 59.3588 60 23.7343 24.4401 25.274 26.2929 27.603 29.4408 32.5447 47.5547 50 23.9568 24.8304 25.8624 27.1235 28.7451 31.0197 34.8614 50 24.1807 24.7523 25.3494 25.9741 26.6293 27.318 28.0439 28.8113 29.625 30.4911 31.4168 32.411 33.4845 34.6512 35.9287 37.3404 38.9177 40.7048 42.7661 45.2014 48.1771 52.0036 57.3708 60 24.4061 25.371 26.511 27.904 29.6951 32.2076 36.451 58.4827 60 24.633 25.228 25.8494 26.4996 27.1816 27.8984 28.654 29.4526 30.2995 31.201 32.1645 33.1993 34.3166 35.5309 36.8606 38.3299 39.9716 41.8316 43.9771 46.5118 49.609 53.5916 59.178 60 24.8614 25.6322 26.5428 27.6554 29.0862 31.093 34.4825 50 25.0914 25.9887 27.0487 28.344 30 32.3316 36.2637 55.3733 60 25.3229 26.0506 26.9103 27.9607 29.3114 31.2061 34.4061 49.8808 50 25.5561 26.2085 26.8898 27.6028 28.3505 29.1365 29.9649 30.8406 31.7692 32.7577 33.8141 34.9487 36.1738 37.5052 38.9631 40.5742 42.3742 44.4137 46.7661 49.5453 52.9413 57.308 60 25.7908 26.4922 27.3207 28.3332 29.635 31.4611 34.5453 49.4601 50 26.0272 26.656 27.3126 27.9997 28.7202 29.4777 30.2761 31.1199 32.0149 32.9674 33.9855 35.0789 36.2596 37.5427 38.9477 40.5002 42.2349 44.2004 46.4674 49.1458 52.4184 56.6267 60 26.2653 26.8759 27.5135 28.1808 28.8806 29.6162 30.3914 31.211 32.0801 33.0051 33.9938 35.0557 36.2022 37.4483 38.8127 40.3205 42.0051 43.9138 46.1154 48.7164 51.8946 55.9814 60 26.505 27.0477 27.6144 28.2074 28.8293 29.4831 30.1721 30.9004 31.6728 32.495 33.3737 34.3174 35.3364 36.4438 37.6564 38.9964 40.4936 42.1899 44.1466 46.4582 49.2828 52.9149 58.0096 60 26.7465 27.3644 28.0098 28.6851 29.3934 30.1378 30.9225 31.7519 32.6315 33.5678 34.5685 35.6431 36.8036 38.0647 39.4456 40.9716 42.6766 44.6083 46.8366 49.469 52.6857 56.8218 60 26.9897 27.7786 28.7107 29.8496 31.3142 33.3685 36.838 50 27.2346 28.2287 29.4033 30.8384 32.6838 35.2724 39.6443 60 27.4813 28.1539 28.8563 29.5914 30.3622 31.1726 32.0266 32.9294 33.8868 34.9058 35.995 37.1647 38.4277 39.8004 41.3034 42.9643 44.8201 46.9227 49.348 52.2132 55.7143 60 27.7298 28.6539 29.7456 31.0795 32.7948 35.2009 39.2645 58.9299 60 27.9802 28.6396 29.3284 30.0491 30.8049 31.5994 32.4368 33.322 34.2607 35.2599 36.3278 37.4747 38.7131 40.059 41.5327 43.1612 44.9808 47.0424 49.4203 52.2297 55.6625 60 28.2324 29.0917 30.1068 31.3472 32.9422 35.1796 38.9583 57.2982 60 28.4865 29.1301 29.8023 30.5057 31.2433 32.0187 32.836 33.6998 34.616 35.5911 36.6333 37.7526 38.9612 40.2747 41.713 43.3023 45.0782 47.0902 49.4109 52.1527 55.5029 59.8109 60 28.7425 29.3274 29.9382 30.5774 31.2477 31.9523 32.6949 33.4799 34.3124 35.1985 36.1456 37.1627 38.261 39.4546 40.7616 42.2059 43.8196 45.6479 47.7568 50.2483 53.2927 57.2074 60 29.0005 29.7359 30.6047 31.6663 33.0315 34.9463 38.1803 50 29.2604 29.9843 30.7403 31.5314 32.3611 33.2332 34.1524 35.124 36.1544 37.2511 38.4234 39.6822 41.0416 42.5189 44.1366 45.9241 47.9214 50.1844 52.7946 55.8784 59.6464 60 29.5224 30.2978 31.2139 32.3333 33.7727 35.7917 39.2017 55.7497 60 29.7864 30.5859 31.421 32.2948 33.2112 34.1745 35.1898 36.2631 37.4012 38.6126 39.9074 41.298 42.7995 44.4313 46.2181 48.1926 50.3987 52.8983 55.7815 59.1877 60 30.0524 30.8608 31.8158 32.9828 34.4833 36.5881 40.143 57.3342 60 30.3206 30.9593 31.6263 32.3243 33.0563 33.8257 34.6367 35.494 36.4031 37.3707 38.405 39.5157 40.7151 42.0185 43.4458 45.0229 46.7851 48.7817 51.0847 53.8055 57.13 60 30.5909 31.3344 32.1109 32.9235 33.7756 34.6714 35.6155 36.6135 37.6718 38.7983 40 41.2928 42.6889 44.206 45.8673 47.703 49.754 52.0777 54.758 57.9243 60 30.8634 31.6243 32.5234 33.622 35.0346 37.016 40.3626 56.5462 60 31.138 31.741 32.3707 33.0297 33.7207 34.4472 35.2128 36.0221 36.8804 37.7939 38.7704 39.819 40.9513 42.1818 43.5293 45.0182 46.6819 48.5668 50.741 53.3097 56.4483 60 31.415 31.9961 32.603 33.2381 33.9042 34.6044 35.3423 36.1223 36.9495 37.83 38.7711 39.7818 40.8731 42.0591 43.3578 44.7929 46.3964 48.2131 50.3086 52.7843 55.8094 59.6992 60 31.6941 32.4624 33.3699 34.4789 35.9049 37.9051 41.2833 57.6203 60 31.9757 32.7406 33.6442 34.7485 36.1683 38.16 41.5237 57.7906 60 32.2595 33.0639 34.0142 35.1753 36.6684 38.7627 42.2999 59.4055 60 32.5458 33.1912 33.9536 34.8852 36.0831 37.7635 40.6015 54.3258 60 32.8345 33.6454 34.6033 35.7739 37.279 39.3903 42.9562 60 33.1257 33.7794 34.4622 35.1767 35.926 36.7136 37.5437 38.4212 39.3518 40.3423 41.401 42.5379 43.7656 45.0998 46.5608 48.1752 49.979 52.0228 54.3802 57.1652 60 33.4194 34.2063 35.1361 36.2721 37.7329 39.782 43.2428 59.9787 60 33.7156 34.4869 35.3982 36.5116 37.9434 39.9517 43.3435 59.7464 60 34.0145 34.8383 35.6987 36.599 37.5431 38.5356 39.5817 40.6874 41.86 43.1081 44.4421 45.8748 47.4218 49.103 50.9439 52.9782 55.2512 57.8264 60 34.3161 35.0975 36.0208 37.149 38.5996 40.6344 44.0711 60 34.6203 35.3056 36.0213 36.7702 37.5556 38.3812 39.2514 40.1712 41.1467 42.1849 43.2946 44.4864 45.7733 47.1718 48.7033 50.3955 52.2863 54.4286 56.8996 59.8189 60 34.9273 35.6834 36.5766 37.6681 39.0716 41.0403 44.3652 60 35.2371 36.0379 36.9839 38.1399 39.6263 41.7113 45.2328 60 35.5497 36.2104 36.9005 37.6225 38.3797 39.1757 40.0147 40.9015 41.842 42.843 43.9129 45.0619 46.3026 47.651 49.1275 50.759 52.582 54.6474 57.0298 59.8444 60 35.8653 36.5949 37.4569 38.5101 39.8645 41.7643 44.9728 60 36.1838 36.9558 37.8679 38.9823 40.4154 42.4256 45.8206 60 36.5053 37.1993 37.9241 38.6825 39.4779 40.314 41.1952 42.1267 43.1145 44.1659 45.2897 46.4966 47.7998 49.2161 50.767 52.4807 54.3955 56.5649 59.0673 60 36.83 37.6574 38.635 39.8295 41.3655 43.52 47.1588 60 37.1577 38.0316 39.064 40.3255 41.9476 44.223 48.0659 60 37.4887 38.111 38.7609 39.4411 40.1543 40.9041 41.6943 42.5296 43.4155 44.3584 45.3662 46.4484 47.6171 48.8872 50.2779 51.8147 53.5318 55.4773 57.7213 60 37.8229 38.5172 39.2424 40 40.7958 41.6323 42.5139 43.4458 44.4341 45.486 46.6104 47.8178 49.1216 50.5385 52.0899 53.8043 55.7198 57.8901 60 38.1604 38.7723 39.4113 40.08 40.7812 41.5184 42.2953 43.1166 43.9875 44.9146 45.9054 46.9695 48.1185 49.3672 50.7345 52.2454 53.9337 55.8464 58.0527 60 38.5014 39.2916 40.2252 41.366 42.8329 44.8905 48.3657 60 38.8457 39.5366 40.3527 41.35 42.6323 44.4311 47.469 60 39.1937 39.7788 40.3898 41.0293 41.6999 42.4048 43.1478 43.9331 44.766 45.6525 46.6 47.6175 48.7163 49.9104 51.2179 52.6628 54.2772 56.1063 58.2161 60 39.5452 40.192 40.8675 41.5744 42.3156 43.0949 43.9162 44.7843 45.705 46.685 47.7324 48.8572 50.0718 51.3918 52.8372 54.4344 56.219 58.241 60 39.9004 40.4949 41.1157 41.7653 42.4467 43.1628 43.9177 44.7156 45.5617 46.4624 47.425 48.4588 49.5751 50.7883 52.1167 53.5847 55.2249 57.0832 59.2267 60 40.2594 41.0487 41.9813 43.1208 44.5861 46.6414 50.1127 60 40.6222 41.3627 42.1361 42.9454 43.7942 44.6863 45.6267 46.6206 47.6747 48.7967 49.9959 51.2838 52.6744 54.1857 55.8406 57.6693 59.7125 60 40.9889 41.6359 42.3117 43.0188 43.7603 44.5398 45.3614 46.2299 47.1508 48.1311 49.1789 50.3041 51.5191 52.8396 54.2855 55.8832 57.6684 59.6911 60 41.3597 42.0467 42.7642 43.515 44.3023 45.13 46.0024 46.9245 47.9024 48.9433 50.0558 51.2505 52.5406 53.9427 55.478 57.1744 59.07 60 41.7345 42.3114 42.9138 43.5442 44.2054 44.9004 45.6329 46.4071 47.2283 48.1022 49.0364 50.0396 51.1229 52.3001 53.5892 55.0137 56.6054 58.4087 60 42.1135 42.7936 43.597 44.5787 45.8411 47.6118 50.6024 60 42.4968 43.2596 44.1608 45.2619 46.6778 48.6639 52.0182 60 42.8845 43.6589 44.4677 45.314 46.2015 47.1345 48.1178 49.1572 50.2595 51.4328 52.6868 54.0335 55.4877 57.0681 58.7987 60 43.2767 43.97 44.6941 45.4518 46.2464 47.0817 47.9621 48.8927 49.8796 50.9301 52.0528 53.2585 54.5605 55.9755 57.5249 59.2369 60 43.6735 44.3561 45.0689 45.8149 46.5972 47.4196 48.2863 49.2025 50.1741 51.2083 52.3136 53.5007 54.7825 56.1756 57.7009 59.3865 60 44.0749 44.7976 45.5525 46.3423 47.1706 48.0414 48.9591 49.9292 50.9579 52.0529 53.2233 54.4802 55.8374 57.3124 58.9275 60 44.4812 45.1034 45.7532 46.4332 47.1463 47.8959 48.686 49.5211 50.4068 51.3494 52.357 53.4391 54.6075 55.8773 57.2677 58.8042 60 44.8924 45.4813 46.0964 46.74 47.415 48.1246 48.8724 49.6629 50.5012 51.3935 52.3473 53.3715 54.4775 55.6794 56.9955 58.4499 60 45.3086 46.0086 46.8355 47.8459 49.1452 50.9678 54.0459 60 45.73 46.3502 46.9979 47.6758 48.3866 49.1338 49.9213 50.7538 51.6366 52.5763 53.5807 54.6593 55.824 57.0897 58.4757 60 46.1567 47.1066 48.2289 49.6002 51.3635 53.8369 58.0143 60 46.5888 47.2037 47.8459 48.5179 49.2226 49.9634 50.7442 51.5695 52.4448 53.3764 54.3721 55.4415 56.5962 57.8511 59.2252 60 47.0266 47.7723 48.5512 49.3662 50.221 51.1195 52.0664 53.0674 54.129 55.2589 56.4666 57.7635 59.164 60 47.47 48.2516 49.1749 50.3032 51.754 53.789 57.2261 60 47.9193 48.8188 49.8814 51.1799 52.8495 55.1915 59.147 60 48.3746 49.1104 49.9796 51.0418 52.4075 54.3232 57.5588 60 48.8362 49.5922 50.4853 51.5766 52.9799 54.9482 58.2727 60 49.3041 50.068 50.9705 52.0733 53.4913 55.4803 58.8397 60 49.7786 50.55