<?xml version="1.0"?><VTKFile type="PolyData" version="0.1" byte_order="LittleEndian">
<PolyData>
<Piece NumberOfLines="2522" NumberOfPoints="43401">
<PointData Scalars=" PointData">
<DataArray type="Float32" Name="time" NumberOfComponents="1" format="ascii" >
0 0.0670317 0.134178 0.201441 0.268819 0.336313 0.403924 0.471652 0.539498 0.607461 0.675543 0.675543 0.743744 0.812063 0.812068 0.880507 0.949065 1.01774 1.08654 1.15547 1.22451 1.22451 1.29368 1.36296 1.43237 1.50191 1.50191 1.57157 1.64135 1.71125 1.78129 1.78129 1.85145 1.92173 1.92173 1.99214 2.06268 2.13334 2.20413 2.27505 2.3461 2.3461 2.41728 2.48859 2.48859 2.56003 2.6316 2.7033 2.77513 2.77514 2.8471 2.9192 2.9192 2.99143 3.06379 3.13629 3.20892 3.20893 3.28169 3.3546 3.3546 3.42764 3.50082 3.57413 3.64758 3.72117 3.79489 3.86876 3.94276 4.01691 4.0912 4.16563 4.2402 4.2402 4.31491 4.38977 4.46477 4.53991 4.6152 4.69064 4.69064 4.76622 4.84194 4.91782 4.99384 4.99384 5.07001 5.14632 5.22279 5.29941 5.37617 5.45309 5.4531 5.53017 5.60739 5.6074 5.68477 5.7623 5.83998 5.91782 5.91782 5.99581 6.07396 6.07396 6.15226 6.23072 6.30934 6.38812 6.46705 6.54615 6.54615 6.62541 6.70483 6.70483 6.78441 6.86415 6.86415 6.94406 7.02412 7.02412 7.10435 7.18475 7.18475 7.26532 7.34604 7.34604 7.42694 7.508 7.508 7.58924 7.67064 7.67064 7.75221 7.83395 7.83395 7.91587 7.99794 8.0802 8.16263 8.24523 8.328 8.41096 8.49409 8.49409 8.5774 8.66088 8.74454 8.82838 8.9124 8.99661 9.08099 9.16556 9.25031 9.33525 9.33525 9.42037 9.50567 9.50567 9.59117 9.67685 9.67685 9.76272 9.84877 9.93502 10.0215 10.1081 10.1949 10.2819 10.3691 10.4565 10.5441 10.5441 10.6319 10.7199 10.7199 10.8081 10.8965 10.8965 10.9851 11.0739 11.1629 11.2521 11.3415 11.4311 11.4311 11.5209 11.6109 11.6109 11.7012 11.7916 11.7916 11.8822 11.9731 12.0642 12.1554 12.2469 12.3386 12.3386 12.4306 12.5227 12.5227 12.6151 12.7076 12.7076 12.8004 12.8935 12.9867 13.0801 13.0802 13.1738 13.2677 13.3619 13.4562 13.4562 13.5508 13.6456 13.7407 13.836 13.9315 14.0272 14.0272 14.1232 14.2194 14.2194 14.3159 14.4126 14.5095 14.6067 14.6067 14.7041 14.8018 14.8997 14.9978 14.9978 15.0962 15.1949 15.2938 15.3929 15.3929 15.4923 15.592 15.6919 15.792 15.8925 15.9931 16.0941 16.1953 16.1953 16.2967 16.3985 16.5004 16.6027 16.7052 16.808 16.9111 17.0144 17.118 17.2219 17.2219 17.3261 17.4305 17.5352 17.6402 17.7455 17.8511 17.8511 17.9569 18.0631 18.1695 18.2762 18.2762 18.3832 18.4905 18.5981 18.706 18.706 18.8142 18.9227 19.0315 19.1406 19.1406 19.25 19.3597 19.4698 19.5801 19.5801 19.6907 19.8017 19.8017 19.913 20.0246 20.1365 20.2487 20.3613 20.4741 20.4742 20.5874 20.7009 20.7009 20.8148 20.929 21.0435 21.1584 21.1584 21.2736 21.3891 21.505 21.6212 21.6213 21.7378 21.8548 21.8548 21.972 22.0897 22.0897 22.2077 22.326 22.326 22.4447 22.5638 22.6832 22.803 22.803 22.9232 23.0437 23.0437 23.1646 23.2859 23.4076 23.5296 23.5296 23.652 23.7748 23.7748 23.898 24.0216 24.1456 24.2699 24.3947 24.5199 24.5199 24.6454 24.7714 24.8978 25.0245 25.0246 25.1517 25.2794 25.2794 25.4074 25.5358 25.6647 25.794 25.9237 26.0539 26.0539 26.1845 26.3155 26.447 26.5789 26.7113 26.8441 26.9773 27.1111 27.1111 27.2452 27.3799 27.515 27.6505 27.7866 27.9231 27.9231 28.0601 28.1976 28.3355 28.474 28.6129 28.7524 28.8923 29.0328 29.0328 29.1737 29.3152 29.4571 29.5996 29.5996 29.7426 29.8862 30.0302 30.1748 30.32 30.4656 30.4656 30.6118 30.7586 30.9059 31.0538 31.0538 31.2022 31.3512 31.3513 31.5008 31.651 31.8017 31.953 32.1049 32.2574 32.4105 32.5641 32.5642 32.7185 32.8734 33.0289 33.185 33.185 33.3418 33.4992 33.4992 33.6572 33.8159 33.8159 33.9752 34.1352 34.2958 34.4571 34.4571 34.6191 34.7817 34.945 35.109 35.2737 35.4391 35.6051 35.7719 35.9394 36.1077 36.1077 36.2766 36.4463 36.4463 36.6168 36.7879 36.9598 37.1325 37.1325 37.306 37.4802 37.4802 37.6552 37.831 37.831 38.0076 38.185 38.3632 38.5422 38.722 38.9026 39.0841 39.2665 39.2665 39.4497 39.6338 39.8187 40.0045 40.0045 40.1912 40.3788 40.5673 40.7567 40.947 41.1383 41.1383 41.3305 41.5236 41.5237 41.7178 41.9128 41.9128 42.1089 42.3059 42.306 42.504 42.7031 42.7031 42.9031 43.1042 43.3063 43.5095 43.5095 43.7138 43.9191 44.1255 44.333 44.5416 44.7513 44.7513 44.9622 45.1742 45.3873 45.6016 45.6016 45.8171 46.0338 46.0338 46.2517 46.4708 46.6912 46.9128 47.1357 47.3598 47.3598 47.5852 47.812 47.812 48.0401 48.2695 48.5002 48.7323 48.7324 48.9659 49.2008 49.2008 49.4371 49.6749 49.6749 49.9141 50.1548 50.397 50.6407 50.8859 51.1327 51.1327 51.381 51.6309 51.6309 51.8825 52.1356 52.3904 52.6469 52.6469 52.9051 53.165 53.4266 53.69 53.9552 54.2221 54.491 54.7616 54.7616 55.0342 55.3087 55.5851 55.8635 56.1438 56.4262 56.7107 56.9972 57.2859 57.5767 57.8697 58.1649 58.1649 58.4623 58.762 59.0641 59.3684 59.6752 59.9844 59.9844 60 2.77513 3.40568 4.06421 4.75332 5.47599 6.23567 7.03633 7.88268 8.78022 9.73555 10.7566 11.8532 13.0373 14.3242 15.7333 17.2903 19.0301 21.0013 23.275 25.9611 29.2433 33.4638 39.384 49.3826 60 2.9192 3.68015 4.57915 5.67764 7.09017 9.07152 12.4179 28.6006 30 3.06379 3.7666 4.5006 5.26869 6.07418 6.92092 7.81335 8.75669 9.75709 10.8219 11.96 13.1823 14.5021 15.9364 17.507 19.2425 21.1817 23.3787 25.913 28.907 32.5653 37.2696 43.8682 55.0127 60 3.20893 4.05709 5.05912 6.2835 7.85791 10.0663 13.7962 30 3.3546 4.03761 4.75094 5.4974 6.28021 7.1031 7.9704 8.88717 9.8594 10.8942 12.0003 13.1881 14.4708 15.8647 17.391 19.0777 20.9622 23.0974 25.5603 28.47 32.0253 36.5971 43.0098 53.8406 60 3.50082 4.20838 4.94735 5.72064 6.5316 7.38407 8.28254 9.23227 10.2394 11.3115 12.4573 13.6878 15.0166 16.4606 18.0418 19.7891 21.7414 23.9534 26.5048 29.519 33.2022 37.9383 44.5816 55.8016 60 3.64758 4.47186 5.44567 6.63557 8.16565 10.3119 13.9367 30 3.7949 4.64881 5.65763 6.8903 8.47538 10.6988 14.4539 30 3.94277 4.55174 5.18774 5.85327 6.55121 7.28489 8.05816 8.87554 9.74237 10.665 11.6512 12.7102 13.8538 15.0966 16.4575 17.9613 19.6415 21.5452 23.7411 26.3354 29.5053 33.5814 39.2989 48.9554 60 4.09121 4.78488 5.50933 6.26743 7.06246 7.89818 8.77901 9.71007 10.6975 11.7484 12.8718 14.0781 15.3807 16.7964 18.3466 20.0595 21.9735 24.142 26.6433 29.5983 33.2091 37.8522 44.365 55.3646 60 4.24022 4.80215 5.38903 6.00317 6.64721 7.32423 8.03778 8.79204 9.59192 10.4433 11.3533 12.3306 13.3858 14.5327 15.7884 17.1761 18.7266 20.4833 22.5096 24.9035 27.8285 31.5899 36.8658 45.7766 60 4.38978 5.1247 5.99294 7.05384 8.41804 10.3316 13.5634 29.1924 30 4.53993 5.34291 6.18152 7.05909 7.97939 8.94681 9.96644 11.0442 12.1872 13.4038 14.7041 16.1006 17.6085 19.2473 21.0417 23.0246 25.2402 27.7504 30.6458 34.0666 38.2464 43.6211 51.1602 60 4.69065 5.52779 6.51679 7.72525 9.27919 11.4589 15.1403 30 4.84196 5.52012 6.32131 7.30028 8.55912 10.3249 13.3071 27.7291 30 4.99386 5.96291 7.10776 8.50666 10.3055 12.8287 17.0901 38.1745 40 5.14634 5.88885 6.6643 7.47577 8.32676 9.22131 10.1641 11.1608 12.2177 13.3426 14.545 15.8363 17.2306 18.746 20.4052 22.2388 24.2875 26.6086 29.286 32.4491 36.3141 41.284 48.2552 60 5.29943 5.99167 6.71463 7.47116 8.26454 9.09854 9.97755 10.9067 11.8921 12.9409 14.0619 15.2657 16.5657 17.9784 19.5254 21.2348 23.1448 25.3088 27.805 30.7539 34.3573 38.9907 45.4901 56.467 60 5.45311 6.00594 6.58331 7.18749 7.82109 8.48714 9.18913 9.93116 10.7181 11.5557 12.4509 13.4123 14.4505 15.5787 16.8142 18.1793 19.7047 21.4329 23.4264 25.7815 28.6591 32.3595 37.55 46.3163 60 5.60741 6.50347 7.56209 8.85563 10.519 12.8521 16.7926 36.1989 40 5.76231 6.43341 7.1343 7.86773 8.63689 9.44542 10.2976 11.1984 12.1536 13.1704 14.2572 15.4243 16.6845 18.0541 19.5539 21.2111 23.0628 25.1607 27.5806 30.4396 33.9329 38.4249 44.7258 55.3675 60 5.91783 6.75323 7.7402 8.94616 10.4969 12.6721 16.3459 30 6.07397 6.74113 7.52934 8.49244 9.73088 11.468 14.402 28.5902 30 6.23073 6.82035 7.43614 8.08053 8.7563 9.46667 10.2154 11.0068 11.8461 12.7394 13.6942 14.7196 15.8269 17.0302 18.3479 19.8039 21.4307 23.274 25.4001 27.9119 30.9811 34.9277 40.4636 49.8134 60 6.38812 7.19801 8.15484 9.32398 10.8274 12.9361 16.4977 30 6.54615 7.25771 8.09837 9.12557 10.4464 12.2992 15.4284 30 6.70482 7.34516 8.01391 8.71372 9.44761 10.2191 11.0322 11.8917 12.8031 13.7733 14.8102 15.9238 17.1263 18.4331 19.8641 21.4454 23.2122 25.2139 27.5229 30.2508 33.5839 37.87 43.882 54.0359 60 6.86414 7.56171 8.29025 9.05261 9.85211 10.6925 11.5783 12.5146 13.5076 14.5645 15.6941 16.9073 18.2172 19.6409 21.1998 22.9224 24.8471 27.0278 29.5432 32.5149 36.146 40.8152 47.3646 58.4262 60 7.02411 7.8218 8.65489 9.52667 10.4409 11.402 12.4149 13.4855 14.621 15.8296 17.1213 18.5086 20 21.6274 23.4093 25.3782 27.5781 30.0704 32.9449 36.3405 40.4888 45.8217 53.2984 60 7.18474 7.85347 8.55188 9.28273 10.0492 10.8549 11.704 12.6016 13.5535 14.5667 15.6496 16.8126 18.0684 19.4332 20.9277 22.579 24.4242 26.5147 28.9261 31.7749 35.2559 39.7321 46.0107 56.615 60 7.34602 7.90353 8.48577 9.09505 9.73401 10.4057 11.1136 11.8619 12.6555 13.5001 14.4029 15.3725 16.4194 17.5572 18.8031 20.1797 21.718 23.4608 25.4711 27.8461 30.7481 34.4797 39.714 48.5544 60 7.50798 8.24613 9.01703 9.82373 10.6697 11.559 12.4963 13.4871 14.5378 15.6561 16.8515 18.1352 19.5213 21.0278 22.6773 24.5001 26.5367 28.8443 31.5059 34.6505 38.4928 43.4335 50.3638 60 7.67061 8.22358 8.80109 9.40542 10.0392 10.7054 11.4075 12.1498 12.9369 13.7747 14.6701 15.6318 16.6702 17.7987 19.0345 20.4 21.9257 23.6543 25.6483 28.0039 30.8823 34.5836 39.7753 48.5438 60 7.83392 8.51252 9.22124 9.96288 10.7406 11.5582 12.4199 13.3307 14.2967 15.3248 16.4237 17.6039 18.8782 20.2632 21.7797 23.4554 25.3278 27.4492 29.8961 32.787 36.3194 40.8616 47.2329 57.9936 60 7.99793 8.73197 9.49859 10.3008 11.1421 12.0265 12.9586 13.9438 14.9887 16.1008 17.2895 18.5661 19.9445 21.4426 23.083 24.8956 26.921 29.2157 31.8625 34.9896 38.8106 43.7238 50.6157 60 8.16262 8.84521 9.55809 10.3041 11.0864 11.9088 12.7755 13.6917 14.6634 15.6976 16.8029 17.99 19.2719 20.6649 22.1903 23.8759 25.7593 27.8932 30.3545 33.2624 36.8155 41.3844 47.7932 58.6172 60 8.328 8.96039 9.62084 10.312 11.0367 11.7986 12.6016 13.4505 14.3506 15.3087 16.3328 17.4326 18.6202 19.9107 21.324 22.8856 24.6304 26.6074 28.8877 31.5817 34.8735 39.1063 45.0437 55.0716 60 8.49409 9.26685 10.1798 11.2954 12.7298 14.7419 18.1402 30 8.66088 9.36161 10.0934 10.8592 11.6624 12.5066 13.3964 14.3369 15.3343 16.396 17.5308 18.7494 20.0653 21.4953 23.0613 24.7916 26.7251 28.9156 31.4424 34.4275 38.075 42.7653 49.3443 60 8.82839 9.43554 10.0696 10.7332 11.4291 12.1605 12.9315 13.7465 14.6107 15.5306 16.5138 17.5697 18.7099 19.949 21.3058 22.8051 24.4804 26.3784 28.5677 31.1542 34.3147 38.3787 44.0791 53.7069 60 8.99661 9.61049 10.2516 10.9225 11.6261 12.3657 13.1452 13.9692 14.843 15.7731 16.7671 17.8347 18.9875 20.2404 21.6122 23.1281 24.8219 26.741 28.9546 31.5697 34.7652 38.8741 44.6378 54.3721 60 9.16557 9.77034 10.4019 11.0629 11.756 12.4846 13.2526 14.0643 14.9251 15.8414 16.8208 17.8725 19.0082 20.2424 21.5939 23.0873 24.756 26.6465 28.8273 31.4036 34.5516 38.5996 44.2777 53.8675 60 9.33526 10.1771 11.1717 12.3869 13.9496 16.1416 19.8437 37.7472 40 9.50569 10.4684 11.6057 12.9953 14.7823 17.2888 21.5223 40 9.67686 10.4839 11.4374 12.6024 14.1005 16.2018 19.7508 36.9317 40 9.84879 10.5216 11.3165 12.2877 13.5366 15.2884 18.2471 30 10.0215 10.9123 11.9647 13.2506 14.9042 17.2236 21.141 40 10.1949 10.8623 11.6507 12.614 13.8527 15.5903 18.525 30 10.3692 11.1881 12.1556 13.3378 14.858 16.9904 20.5918 38.0079 40 10.5442 11.1482 11.779 12.4392 13.1315 13.8592 14.6262 15.437 16.2968 17.212 18.1902 19.2406 20.375 21.6077 22.9576 24.4492 26.1158 28.0041 30.1822 32.7555 35.8997 39.9428 45.6141 55.1925 60 10.7199 11.6058 12.6524 13.9312 15.5755 17.8821 21.7777 40 10.8965 11.4993 12.1287 12.7875 13.4783 14.2044 14.9698 15.7788 16.6367 17.5499 18.526 19.5742 20.7061 21.9361 23.2831 24.7715 26.4345 28.3187 30.4921 33.0598 36.1972 40.2316 45.8906 55.4483 60 11.0739 11.7504 12.4569 13.1963 13.9716 14.7867 15.6457 16.5537 17.5167 18.5417 19.6372 20.8137 22.0841 23.4647 24.9765 26.6471 28.5137 30.6285 33.0679 35.9499 39.4713 43.9995 50.3511 60 11.2521 12.0759 13.0491 14.2382 15.7673 17.9122 21.5348 39.0533 40 11.4311 12.1401 12.8806 13.6555 14.4681 15.3223 16.2226 17.1743 18.1835 19.2578 20.4059 21.639 22.9705 24.4175 26.0019 27.7528 29.7091 31.9256 34.4822 37.5027 41.1934 45.9392 52.5961 60 11.6109 12.2416 12.9002 13.5895 14.3123 15.0721 15.873 16.7195 17.6172 18.5727 19.594 20.6908 21.8751 23.1622 24.5716 26.1289 27.8691 29.8406 32.1147 34.8014 38.0843 42.3056 48.2269 58.2275 60 11.7916 12.3978 13.0309 13.6934 14.3882 15.1185 15.8883 16.702 17.5649 18.4833 19.465 20.5192 21.6576 22.8948 24.2495 25.7465 27.4191 29.3142 31.5001 34.0826 37.2381 41.2957 46.9873 56.6 60 11.9731 12.6454 13.3476 14.0824 14.853 15.6631 16.5168 17.4193 18.3763 19.395 20.4838 21.6531 22.9157 24.2879 25.7904 27.4507 29.3059 31.4077 33.8322 36.6964 40.1963 44.6967 51.0093 60 12.1554 12.7011 13.271 13.8673 14.4927 15.1501 15.843 16.5754 17.3521 18.1789 19.0625 20.0115 21.0362 22.1498 23.3692 24.7167 26.2222 27.9281 29.8957 32.2202 35.0606 38.713 43.8362 52.4889 60 12.3386 12.9583 13.6054 14.2826 14.9928 15.7393 16.5261 17.3578 18.2399 19.1787 20.1821 21.2597 22.4233 23.6879 25.0727 26.6028 28.3125 30.2496 32.4839 35.1237 38.3491 42.4967 48.3144 58.1402 60 12.5227 13.2859 14.1875 15.2892 16.7058 18.693 22.0491 38.2791 40 12.7076 13.3622 14.0458 14.7611 15.5113 16.2999 17.1311 18.0096 18.9414 19.9331 20.9931 22.1314 23.3606 24.6964 26.1592 27.7755 29.5816 31.6278 33.9881 36.7765 40.1837 44.5649 50.7105 60 12.8934 13.6121 14.4612 15.4987 16.8328 18.7042 21.8648 37.1491 40 13.0801 13.6891 14.325 14.9905 15.6885 16.4221 17.1954 18.0127 18.8795 19.8021 20.7882 21.8472 22.9908 24.2335 25.5944 27.0981 28.7783 30.6819 32.8777 35.4719 38.6417 42.7176 48.4349 58.0911 60 13.2677 13.8753 14.5099 15.174 15.8704 16.6025 17.374 18.1896 19.0545 19.9751 20.9591 22.0158 23.1569 24.3969 25.7548 27.2553 28.9318 30.8313 33.0224 35.6109 38.7738 42.8409 48.5458 58.1811 60 13.4562 14.0842 14.7401 15.4265 16.1462 16.9029 17.7003 18.5433 19.4372 20.3887 21.4057 22.4979 23.6772 24.9589 26.3624 27.9132 29.646 31.6093 33.8738 36.5492 39.8182 44.0218 49.9182 59.8768 60 13.6456 14.4098 15.3127 16.4159 17.8345 19.8244 23.1852 39.4376 40 13.836 14.5708 15.439 16.4999 17.8641 19.7775 23.0093 38.6377 40 14.0272 14.7605 15.6268 16.6854 18.0466 19.9559 23.1806 38.7751 40 14.2194 14.8195 15.4463 16.1021 16.7899 17.513 18.275 19.0805 19.9347 20.844 21.8158 22.8594 23.9864 25.2111 26.5522 28.0342 29.69 31.5661 33.73 36.2865 39.4104 43.4272 49.0617 58.5779 60 14.4126 15.1705 16.0659 17.16 18.5668 20.5402 23.8732 39.991 40 14.6067 15.3309 16.1865 17.232 18.5764 20.4621 23.647 39.0488 40 14.8018 15.4786 16.1855 16.9253 17.701 18.5165 19.376 20.2845 21.248 22.2735 23.3696 24.5467 25.8178 27.1992 28.7118 30.3832 32.2508 34.3668 36.8075 39.691 43.2143 47.7448 54.0998 60 14.9978 15.7536 16.5429 17.3689 18.2351 19.1456 20.1053 21.1198 22.1956 23.3406 24.5645 25.8789 27.2982 28.8406 30.5295 32.3958 34.4812 36.8438 39.5691 42.7887 46.7228 51.7816 58.8774 60 15.1949 15.7402 16.3097 16.9056 17.5306 18.1876 18.8801 19.612 20.3882 21.2144 22.0975 23.0458 24.0699 25.1828 26.4014 27.748 29.2526 30.9573 32.9236 35.2467 38.0852 41.7353 46.8551 55.5022 60 15.3929 16.2098 17.1748 18.354 19.8703 21.9972 25.5894 40 15.592 16.17 16.7737 17.4055 18.068 18.7645 19.4985 20.2744 21.0972 21.9731 22.9092 23.9145 25 26.1797 27.4716 28.899 30.494 32.3011 34.3855 36.8481 39.8571 43.7264 49.1537 58.3202 60 15.792 16.3747 16.9833 17.6201 18.2879 18.9899 19.7298 20.5119 21.3414 22.2242 23.1678 24.1811 25.2753 26.4645 27.7667 29.2056 30.8133 32.6349 34.736 37.2183 40.2514 44.1516 49.6224 58.8622 60 15.9931 16.9052 17.9828 19.2994 20.9925 23.3673 27.3783 46.8132 50 16.1953 16.8896 17.6148 18.3736 19.1694 20 20.8814 21.813 22.8009 23.8524 24.9763 26.1832 27.4864 28.9026 30.4532 32.1666 34.0809 36.2495 38.7506 41.7048 45.3136 49.9519 56.4529 60 16.3984 17.0565 17.834 18.784 20 21.7108 24.5968 38.201 40 16.6027 17.3003 18.1245 19.1316 20.4265 22.2429 25.3108 40 16.808 17.3938 18.0055 18.6457 19.3171 20.0228 20.7666 21.5529 22.3867 23.2742 24.2228 25.2415 26.3415 27.5369 28.846 30.2925 31.9087 33.7399 35.8521 38.3476 41.3967 45.3175 50.8172 60 17.0144 17.7176 18.5484 19.5635 20.8688 22.6998 25.7922 40 17.2219 17.852 18.5101 19.1988 19.921 20.6801 21.4802 22.326 23.223 24.1776 25.198 26.2939 27.4772 28.7632 30.1713 31.7273 33.4659 35.4358 37.7079 40.3923 43.6723 47.89 53.8061 60 17.4305 18.2685 19.2584 20.4681 22.0235 24.2053 27.8903 48.4026 50 17.6402 18.3331 19.0567 19.8139 20.608 21.4427 22.3225 23.2525 24.2387 25.2884 26.4104 27.6153 28.9165 30.3304 31.8788 33.5897 35.5014 37.6674 40.1657 43.1173 46.7238 51.3614 57.8665 60 17.8511 18.558 19.3932 20.4137 21.7259 23.5665 26.6753 40 18.0631 18.7089 19.3833 20.0891 20.8293 21.6073 22.4274 23.2942 24.2135 25.1919 26.2377 27.3608 28.5736 29.8915 31.3347 32.9295 34.7113 36.7302 39.0589 41.81 45.1716 49.4943 55.5576 60 18.2762 19.0367 19.9351 21.0328 22.4444 24.4244 27.7685 40 18.4906 19.0815 19.6986 20.3444 21.0217 21.7336 22.4839 23.2771 24.1182 25.0135 25.9704 26.9981 28.1078 29.3137 30.6343 32.0935 33.7239 35.5712 37.702 40.2193 43.2952 47.2505 52.7985 60 18.7061 19.5422 20.53 21.7371 23.2892 25.4663 29.1433 47.0687 50 18.9228 19.7021 20.6229 21.7479 23.1946 25.2239 28.6512 45.2724 50 19.1406 19.8538 20.6963 21.7257 23.0495 24.9063 28.0423 40 19.3598 20.2516 21.3053 22.5928 24.2484 26.5706 30.4927 49.4597 50 19.5801 20.3845 21.3347 22.4958 23.9889 26.0832 29.6204 46.84 50 19.8017 20.6049 21.5537 22.7132 24.204 26.2953 29.8272 47.0707 50 20.0246 20.9294 21.9984 23.3045 24.9841 27.34 31.3191 50 20.2487 21.0172 21.925 23.0343 24.4607 26.4616 29.8408 46.1867 50 20.4742 21.2132 21.985 22.7927 23.6397 24.5301 25.4685 26.4605 27.5124 28.6321 29.8289 31.1142 32.502 34.0102 35.6618 37.4867 39.5259 41.8362 44.501 47.6494 51.4963 56.443 60 20.7009 21.4923 22.4274 23.5699 25.039 27.0997 30.5801 47.411 50 20.929 21.7232 22.6615 23.8079 25.2822 27.3501 30.8427 47.7325 50 21.1584 21.8249 22.5209 23.2493 24.0132 24.8162 25.6625 26.5571 27.5058 28.5156 29.5949 30.754 32.0056 33.3659 34.8553 36.5011 38.3401 40.4237 42.827 45.6663 49.1356 53.5968 59.8544 60 21.3891 22.1052 22.9512 23.9849 25.3141 27.1785 30.3275 45.5556 50 21.6213 22.2868 22.9818 23.7092 24.4719 25.2737 26.1188 27.0121 27.9594 28.9677 30.0455 31.2028 32.4526 33.8108 35.2981 36.9415 38.7778 40.8583 43.2581 46.0932 49.5575 54.0121 60 21.8548 22.6045 23.3876 24.2069 25.0662 25.9695 26.9216 27.9279 28.9952 30.1311 31.3452 32.6491 34.0571 35.5872 37.2627 39.1142 41.1829 43.5267 46.2302 49.4242 53.327 58.3454 60 22.0897 22.7388 23.5057 24.4428 25.6477 27.3379 30.1925 43.9971 50 22.326 23.3259 24.5072 25.9506 27.8066 30.4101 34.8072 56.088 60 22.5638 23.3056 24.1819 25.2527 26.6297 28.5611 31.8232 47.5983 50 22.803 23.4397 24.1047 24.8006 25.5304 26.2976 27.1061 27.9608 28.8671 29.8319 30.863 31.9704 33.1661 34.4656 35.8886 37.461 39.2179 41.2084 43.5044 46.217 49.5315 53.7936 59.7719 60 23.0437 23.9228 24.9613 26.2304 27.8622 30.1511 34.017 50 23.2859 24.2027 25.2859 26.6094 28.3113 30.6985 34.7304 50 23.5296 24.1854 24.8703 25.587 26.3386 27.1287 27.9615 28.8417 29.7752 30.7688 31.8308 32.9713 34.2028 35.5412 37.0068 38.6262 40.4357 42.4858 44.8506 47.6443 51.058 55.4476 60 23.7748 24.4427 25.1402 25.8701 26.6356 27.4402 28.2883 29.1847 30.1354 31.1473 32.2289 33.3904 34.6446 36.0076 37.5001 39.1494 40.9922 43.0801 45.4884 48.3336 51.8101 56.2805 60 24.0216 24.7654 25.6442 26.718 28.0987 30.0355 33.3066 49.1253 50 24.2699 25.1246 26.1344 27.3683 28.9549 31.1804 34.9391 50 24.5198 25.3077 26.2385 27.3758 28.8383 30.8897 34.3544 50 24.7714 25.5286 26.3194 27.1469 28.0148 28.9271 29.8886 30.905 31.9828 33.1301 34.3563 35.6731 37.0951 38.6405 40.3327 42.2025 44.2918 46.659 49.3894 52.6152 56.5568 60 25.0245 25.65 26.3033 26.9869 27.7038 28.4574 29.2517 30.0912 30.9816 31.9293 32.9422 34.03 35.2047 36.4812 37.8791 39.4237 41.1496 43.105 45.3605 48.0252 51.2811 55.4679 60 25.2793 25.9257 26.6007 27.3071 28.0479 28.8267 29.6474 30.515 31.4351 32.4144 33.4611 34.5852 35.799 37.1181 38.5625 40.1587 41.9421 43.9627 46.2934 49.047 52.4115 56.738 60 25.5358 26.2372 26.9697 27.7362 28.54 29.385 30.2756 31.217 32.2154 33.278 34.4138 35.6335 36.9506 38.382 39.9494 41.6813 43.6165 45.8091 48.3382 51.326 54.9769 59.6715 60 25.794 26.4813 27.1992 27.9504 28.7381 29.5662 30.439 31.3616 32.34 33.3814 34.4945 35.6898 36.9806 38.3833 39.9194 41.6167 43.5132 45.6619 48.1404 51.0685 54.6464 59.2471 60 26.0539 26.739 27.5485 28.5376 29.8094 31.5934 34.6064 49.1773 50 26.3155 26.8596 27.4278 28.0224 28.646 29.3015 29.9923 30.7226 31.4971 32.3214 33.2024 34.1486 35.1704 36.2807 37.4966 38.8401 40.3413 42.0421 44.004 46.3218 49.1539 52.7956 57.9039 60 26.5789 27.2138 27.8769 28.5707 29.2984 30.0633 30.8695 31.7217 32.6255 33.5874 34.6155 35.7197 36.912 38.2077 39.6265 41.1943 42.9462 44.9309 47.2203 49.925 53.2299 57.4796 60 26.8441 27.7703 28.8647 30.2018 31.9212 34.333 38.4063 58.4697 60 27.1111 27.8347 28.6897 29.7344 31.0777 32.962 36.1444 50 27.3799 28.2204 29.2134 30.4267 31.9869 34.1754 37.8716 56.0476 60 27.6506 28.3455 29.1666 30.1698 31.4598 33.2693 36.3255 50 27.9231 28.6794 29.5728 30.6645 32.0682 34.0373 37.3629 50 28.1976 29.0436 30.0431 31.2644 32.8348 35.0376 38.758 57.0068 60 28.474 29.0776 29.7079 30.3675 31.0593 31.7864 32.5528 33.3629 34.2221 35.1365 36.1139 37.1635 38.2969 39.5287 40.8775 42.3679 44.0332 45.92 48.0963 50.6675 53.8092 57.8491 60 28.7524 29.6441 30.6976 31.9849 33.6402 35.962 39.8835 58.9039 60 29.0328 29.6042 30.2009 30.8253 31.4802 32.1686 32.8941 33.661 34.4743 35.34 36.2653 37.259 38.3319 39.498 40.7749 42.1858 43.7624 45.5485 47.6089 50.0429 53.0171 56.8416 60 29.3152 29.9849 30.6844 31.4163 32.1839 32.9907 33.8412 34.7401 35.6934 36.7081 37.7926 38.9573 40.215 41.5818 43.0785 44.7323 46.5802 48.6738 51.0887 53.9418 57.4279 60 29.5997 30.3387 31.2119 32.2788 33.6507 35.5751 38.8253 54.5919 60 29.8862 30.5186 31.179 31.8702 32.5949 33.3568 34.1598 35.0086 35.9088 36.8669 37.891 38.9908 40.1783 41.4689 42.8821 44.4437 46.1886 48.1655 50.4458 53.1398 56.4316 60 30.1748 30.9338 31.8304 32.9261 34.3349 36.311 39.6486 55.8802 60 30.4657 31.2834 32.2495 33.4299 34.9478 37.077 40.673 58.0631 60 30.7586 31.4271 32.2169 33.182 34.4229 36.1636 39.1035 50 31.0538 31.8947 32.888 34.1018 35.6626 37.852 41.5496 59.4311 60 31.3513 32.2321 33.2726 34.5441 36.1791 38.4725 42.3458 60 31.651 32.3821 33.2459 34.3013 35.6585 37.5622 40.7774 56.326 60 31.953 32.6898 33.5602 34.6238 35.9915 37.9099 41.15 56.8186 60 32.2574 33.133 34.1675 35.4315 37.0569 39.3368 43.1874 60 32.5642 33.2945 34.1573 35.2115 36.5672 38.4687 41.6804 57.2114 60 32.8733 33.766 34.8207 36.1094 37.7665 40.0909 44.0166 60 33.185 33.9608 34.7711 35.619 36.5082 37.4429 38.428 39.4694 40.5737 41.7492 43.0055 44.3548 45.8117 47.395 49.1288 51.0447 53.1853 55.6107 58.4082 60 33.4991 34.3239 35.2983 36.4889 38.0199 40.1674 43.7944 60 33.8159 34.4928 35.1997 35.9395 36.7153 37.5309 38.3904 39.299 40.2625 41.2881 42.3843 43.5615 44.8326 46.2141 47.7268 49.3984 51.2661 53.3822 55.823 58.7067 60 34.1351 34.7417 35.3752 36.038 36.7332 37.464 38.2342 39.0483 39.9117 40.8306 41.8129 42.8677 44.0067 45.2446 46.6001 48.0979 49.7714 51.6676 53.8547 56.4386 59.5959 60 34.4571 35.1996 35.975 36.7865 37.6375 38.532 39.4748 40.4714 41.5283 42.6533 43.8557 45.1469 46.5413 48.0566 49.7159 51.5494 53.598 55.9192 58.5965 60 34.7817 35.3395 35.9221 36.5317 37.1711 37.8432 38.5515 39.3003 40.0943 40.9395 41.8428 42.8129 43.8605 44.999 46.2456 47.6231 49.1623 50.9062 52.9176 55.2941 58.1978 60 35.109 35.9212 36.8809 38.0535 39.5613 41.6763 45.2484 60 35.439 36.0731 36.7354 37.4283 38.1551 38.919 39.7242 40.5753 41.4779 42.4386 43.4655 44.5682 45.759 47.053 48.4701 50.0359 51.7855 53.7677 56.0542 58.7555 60 35.7719 36.4474 37.2455 38.2207 39.4746 41.2336 44.2043 58.5703 60 36.1076 36.7608 37.443 38.1569 38.9055 39.6924 40.5218 41.3986 42.3283 43.318 44.3757 45.5117 46.7383 48.0713 49.531 51.144 52.9462 54.9882 57.3435 60 36.4463 37.1113 37.8058 38.5326 39.2948 40.096 40.9405 41.8331 42.7797 43.7872 44.8642 46.0207 47.2695 48.6267 50.1128 51.755 53.5899 55.6689 58.0668 60 36.7879 37.4234 38.1742 39.0915 40.2712 41.9258 44.7204 58.2349 60 37.1325 37.6934 38.2791 38.8921 39.5349 40.2107 40.9229 41.6757 42.4741 43.3239 44.2321 45.2075 46.2608 47.4055 48.6589 50.0439 51.5914 53.3448 55.3673 57.7566 60 37.4802 38.2708 39.2048 40.3461 41.8136 43.8721 47.3489 60 37.831 38.4255 39.0463 39.696 40.3773 41.0935 41.8484 42.6463 43.4925 44.3931 45.3558 46.3896 47.506 48.7192 50.0477 51.5156 53.1559 55.0143 57.1578 59.6903 60 38.1849 38.7972 39.4366 40.1056 40.8073 41.5449 42.3223 43.144 44.0155 44.9431 45.9345 46.9992 48.1489 49.3983 50.7664 52.2783 53.9675 55.8814 58.0889 60 38.5422 39.3573 40.3203 41.4971 43.0102 45.1327 48.7174 60 38.9027 39.5112 40.1467 40.8117 41.5091 42.2422 43.0149 43.8316 44.6978 45.6197 46.6051 47.6633 48.8061 50.0479 51.4077 52.9104 54.5893 56.4916 58.6858 60 39.2665 40.1581 41.2114 42.4985 44.1536 46.4751 50.396 60 39.6338 40.2706 40.9356 41.6316 42.3614 43.1287 43.9373 44.792 45.6985 46.6633 47.6945 48.802 49.9978 51.2974 52.7205 54.2931 56.0501 58.0409 60 40.0045 40.9205 42.0028 43.3251 45.0255 47.4106 51.439 60 40.3788 41.1252 42.0071 43.0847 44.4703 46.4139 49.6966 60 40.7567 41.418 42.1086 42.8313 43.5892 44.3859 45.2256 46.1131 47.0544 48.0563 49.1272 50.2772 51.519 52.8685 54.3463 55.9793 57.8038 59.8711 60 41.1383 41.788 42.4665 43.1765 43.9211 44.7039 45.5289 46.4009 47.3257 48.3101 49.3622 50.492 51.7121 53.038 54.4899 56.0943 57.8869 59.9179 60 41.5236 42.1662 42.9253 43.8528 45.0455 46.7186 49.5442 60 41.9128 42.6516 43.5245 44.5911 45.9625 47.8863 51.1354 60 42.3059 42.9632 43.6497 44.368 45.1213 45.9132 46.7478 47.63 48.5656 49.5615 50.6259 51.7689 53.0032 54.3446 55.8135 57.4366 59.2501 60 42.703 43.5422 44.5336 45.745 47.3027 49.4877 53.1781 60 43.1042 43.988 45.0321 46.3079 47.9485 50.2497 54.1363 60 43.5095 44.3288 45.1845 46.0799 47.0189 48.006 49.0464 50.1461 51.3124 52.5537 53.8805 55.3054 56.844 58.5161 60 43.9191 44.5501 45.2091 45.8988 46.622 47.3823 48.1836 49.0306 49.9288 50.8849 51.9068 53.0042 54.1892 55.477 56.8872 58.4455 60 44.3329 45.0562 45.9107 46.9548 48.2974 50.1807 53.3614 60 44.7513 45.4648 46.21 46.9898 47.8076 48.6673 49.5733 50.5311 51.5467 52.6278 53.7833 55.0242 56.3642 57.8204 59.4149 60 45.1741 45.7876 46.4283 47.0987 47.8018 48.5409 49.3199 50.1433 51.0165 51.9459 52.9394 54.0062 55.1583 56.4102 57.7811 59.296 60 45.6016 46.1743 46.7724 47.3983 48.0546 48.7446 49.4718 50.2405 51.0557 51.9234 52.8508 53.8467 54.9222 56.0909 57.3707 58.7849 60 46.0338 46.8865 47.7771 48.709 49.6863 50.7136 51.7964 52.9409 54.1547 55.4467 56.8275 58.3105 59.9118 60 46.4708 47.0646 47.6847 48.3335 49.014 49.7294 50.4833 51.2803 52.1254 53.025 53.9865 55.0191 56.1341 57.3458 58.6727 60 46.9128 47.7298 48.6951 49.8746 51.3913 53.5188 57.1119 60 47.3598 47.9787 48.6251 49.3015 50.0108 50.7565 51.5424 52.3731 53.2541 54.1918 55.194 56.2704 57.4326 58.6957 60 47.812 48.6123 49.5578 50.7132 52.1988 54.2827 57.8023 60 48.2694 48.905 49.5688 50.2635 50.992 51.7577 52.5648 53.418 54.3227 55.2857 56.315 57.4204 58.614 59.9112 60 48.7323 49.3216 49.9369 50.5809 51.2562 51.9661 52.7144 53.5052 54.344 55.2367 56.1909 57.2157 58.3222 59.5247 60 49.2008 49.8378 50.5031 51.1992 51.9293 52.6968 53.5057 54.3607 55.2675 56.2326 57.2642 58.372 59.5682 60 49.6749 50.3123 50.978 51.6747 52.4053 53.1732 53.9827 54.8383 55.7456 56.7114 57.7437 58.8522 60 50.1548 50.8285 51.5321 52.2685 53.0406 53.8523 54.7078 55.6121 56.5712 57.5919 58.6829 59.8546 60 50.6407 51.3974 52.2914 53.3837 54.7884 56.7587 60 51.1327 51.6877 52.2673 52.8739 53.51 54.1787 54.8834 55.6284 56.4184 57.2593 58.1581 59.1233 60 51.6309 52.3074 53.1067 54.0833 55.3391 57.1006 60 52.1356 52.7407 53.3726 54.0339 54.7274 55.4564 56.2248 57.0369 57.8982 58.815 59.7949 60 52.6469 53.27 53.9207 54.6017 55.3158 56.0665 56.8577 57.694 58.5809 59.5249 60 53.165 53.9511 54.8798 56.0146 57.4738 59.5206 60 53.69 54.3537 55.0468 55.7722 56.5328 57.3324 58.1752 59.066 60 54.2221 54.9287 55.7634 56.7834 58.0949 59.9347 60 54.7616 55.4964 56.3645 57.4252 58.7891 60 55.3087 56.165 57.1768 58.413 60 55.8635 56.41 56.9808 57.578 58.2044 58.8628 59.5568 60 56.4263 57.2636 58.2528 59.4615 60 56.9973 57.6915 58.4165 59.1752 59.9708 60 57.5767 58.5106 59.6138 60 58.1649 58.7521 59.3653 60 58.7621 59.3517 59.9675 60 59.3685 59.9751 60 59.9845 60 0 0.0422117 0.0844902 0.126836 0.169248 0.211729 0.254277 0.296893 0.339577 0.382329 0.42515 0.468039 0.510998 0.513133 0.556164 0.599265 0.642435 0.685676 0.713405 0.75676 0.800187 0.843683 0.880306 0.923933 0.967632 1.0114 1.05525 1.05616 1.10007 1.14406 1.18812 1.23226 1.23487 1.27908 1.32336 1.36772 1.39981 1.4443 1.48886 1.53349 1.5782 1.59348 1.63829 1.68318 1.72814 1.75665 1.80173 1.84689 1.89213 1.93744 1.95401 1.99942 2.04492 2.0905 2.13615 2.15199 2.19775 2.24358 2.2895 2.31868 2.36472 2.41085 2.45705 2.48378 2.53011 2.57652 2.62301 2.66958 2.68042 2.72709 2.77385 2.82068 2.8676 2.87592 2.92294 2.97004 3.01722 3.05212 3.09945 3.14686 3.19436 3.24194 3.2542 3.30188 3.34966 3.39752 3.44546 3.45232 3.50036 3.54849 3.59671 3.60706 3.65539 3.7038 3.75229 3.80088 3.82432 3.87304 3.92185 3.97074 4.01973 4.03005 4.07915 4.12833 4.17761 4.22506 4.27451 4.32406 4.3737 4.40396 4.45375 4.50363 4.55361 4.57815 4.62826 4.67847 4.72877 4.7431 4.79352 4.84404 4.89466 4.92632 4.97709 5.02796 5.07892 5.12999 5.13942 5.1906 5.24187 5.29325 5.33376 5.38532 5.43697 5.48872 5.52672 5.57865 5.63068 5.68281 5.73504 5.74514 5.79749 5.84995 5.90251 5.9241 5.97681 6.02962 6.08254 6.13556 6.14307 6.19622 6.24946 6.30282 6.33087 6.38438 6.43801 6.49174 6.5397 6.59363 6.64768 6.70184 6.7561 6.81048 6.81126 6.86574 6.92035 6.97506 7.02988 7.07107 7.12609 7.18123 7.23648 7.27418 7.32962 7.38518 7.44085 7.49664 7.51474 7.57069 7.62675 7.68293 7.73923 7.74925 7.80569 7.8622