<?xml version="1.0"?><VTKFile type="PolyData" version="0.1" byte_order="LittleEndian">
<PolyData>
<Piece NumberOfLines="2482" NumberOfPoints="43503">
<PointData Scalars=" PointData">
<DataArray type="Float32" Name="time" NumberOfComponents="1" format="ascii" >
0 0.0663186 0.132754 0.199308 0.265979 0.332768 0.399676 0.466703 0.53385 0.601117 0.668505 0.668505 0.736013 0.803643 0.803648 0.871399 0.939269 1.00726 1.07538 1.07539 1.14363 1.212 1.21201 1.2805 1.34911 1.41785 1.48672 1.55571 1.62483 1.69408 1.76345 1.83296 1.90259 1.97235 2.04223 2.11225 2.1824 2.1824 2.25269 2.3231 2.3231 2.39365 2.46432 2.53513 2.60607 2.60607 2.67715 2.74836 2.74837 2.81971 2.8912 2.8912 2.96282 3.03457 3.10647 3.17849 3.25066 3.32297 3.32297 3.39542 3.46801 3.54073 3.6136 3.68661 3.75976 3.83305 3.90648 3.98006 4.05378 4.12765 4.20166 4.27582 4.35012 4.42458 4.49918 4.57392 4.64882 4.64882 4.72387 4.79907 4.87441 4.94991 5.02556 5.10136 5.10137 5.17732 5.25343 5.25343 5.32969 5.40611 5.48268 5.55941 5.55942 5.6363 5.71335 5.71335 5.79055 5.86791 5.94543 6.02311 6.10095 6.17895 6.17895 6.25712 6.33544 6.41393 6.49258 6.5714 6.65038 6.65039 6.72954 6.80885 6.80886 6.88834 6.96799 7.04781 7.1278 7.20796 7.28829 7.3688 7.44947 7.53032 7.61134 7.69254 7.77391 7.85546 7.93719 8.0191 8.10118 8.18344 8.26589 8.34851 8.43132 8.51431 8.59748 8.68084 8.76438 8.8481 8.93202 9.01612 9.10041 9.10041 9.18489 9.26956 9.26956 9.35442 9.43948 9.43948 9.52472 9.61016 9.61016 9.6958 9.78163 9.78163 9.86765 9.95387 9.95388 10.0403 10.1269 10.1269 10.2137 10.3008 10.388 10.4754 10.563 10.6509 10.6509 10.7389 10.8271 10.9156 11.0042 11.0931 11.1822 11.2715 11.361 11.4507 11.5406 11.5406 11.6308 11.7211 11.7211 11.8117 11.9025 11.9935 12.0848 12.1762 12.2679 12.3598 12.4519 12.5443 12.6369 12.7297 12.8227 12.916 13.0095 13.0095 13.1032 13.1972 13.2914 13.3859 13.4805 13.5755 13.6706 13.766 13.766 13.8617 13.9576 13.9576 14.0537 14.1501 14.1501 14.2467 14.3436 14.3436 14.4407 14.5381 14.5381 14.6357 14.7336 14.8317 14.9301 15.0288 15.1277 15.2268 15.3263 15.426 15.5259 15.6262 15.7267 15.7267 15.8274 15.9285 16.0298 16.1314 16.2332 16.3353 16.4377 16.5404 16.6434 16.7467 16.8502 16.954 16.954 17.0581 17.1625 17.1625 17.2672 17.3722 17.4775 17.5831 17.6889 17.7951 17.9016 18.0083 18.1154 18.2228 18.2228 18.3305 18.4385 18.5468 18.6554 18.7643 18.8736 18.8736 18.9831 19.093 19.2032 19.3137 19.4246 19.5358 19.6473 19.7591 19.7591 19.8713 19.9838 19.9838 20.0967 20.2099 20.3234 20.4373 20.5515 20.6661 20.6661 20.781 20.8963 20.8963 21.0119 21.1279 21.1279 21.2442 21.3609 21.3609 21.478 21.5954 21.5954 21.7132 21.8314 21.8314 21.9499 22.0688 22.1881 22.3078 22.4278 22.5483 22.6691 22.7903 22.7903 22.9119 23.0339 23.1563 23.2791 23.2791 23.4023 23.5259 23.6499 23.7743 23.8991 24.0244 24.15 24.2761 24.4026 24.5295 24.6569 24.7847 24.9129 25.0416 25.1707 25.3003 25.3003 25.4303 25.5607 25.6916 25.823 25.9548 26.0871 26.2199 26.3531 26.4868 26.6209 26.621 26.7556 26.8907 27.0264 27.1625 27.1625 27.2991 27.4362 27.4362 27.5738 27.7119 27.8505 27.9897 27.9897 28.1293 28.2695 28.2695 28.4102 28.5514 28.6932 28.8355 28.9783 29.1217 29.1217 29.2656 29.4101 29.4101 29.5551 29.7007 29.8468 29.9936 29.9936 30.1409 30.2888 30.4372 30.5863 30.5863 30.7359 30.8862 30.8862 31.037 31.1885 31.1885 31.3405 31.4932 31.4932 31.6465 31.8004 31.955 32.1102 32.2661 32.4225 32.5797 32.7375 32.7375 32.896 33.0551 33.0551 33.2149 33.3754 33.5366 33.6985 33.6985 33.861 34.0243 34.1883 34.353 34.5184 34.6846 34.6846 34.8515 35.0191 35.1875 35.3567 35.3567 35.5266 35.6973 35.6973 35.8687 36.041 36.214 36.3878 36.3878 36.5625 36.7379 36.9142 37.0913 37.2693 37.4481 37.4481 37.6277 37.8082 37.9896 38.1719 38.1719 38.355 38.539 38.539 38.724 38.9098 38.9099 39.0966 39.2843 39.473 39.6626 39.6626 39.8532 40.0447 40.2372 40.4307 40.6252 40.8207 40.8207 41.0173 41.2148 41.2148 41.4134 41.6131 41.6131 41.8138 42.0156 42.2185 42.4225 42.6276 42.8338 42.8338 43.0412 43.2497 43.2497 43.4594 43.6702 43.6702 43.8823 44.0955 44.0955 44.31 44.5256 44.7425 44.9607 45.1802 45.4009 45.4009 45.623 45.8463 46.071 46.297 46.5245 46.7532 46.7532 46.9834 47.215 47.4481 47.6826 47.9185 48.156 48.3949 48.6354 48.8774 49.121 49.3662 49.613 49.613 49.8614 50.1115 50.3632 50.6167 50.8718 51.1287 51.1287 51.3874 51.6479 51.9101 52.1743 52.4402 52.7081 52.7081 52.9779 53.2496 53.2497 53.5234 53.7991 53.7991 54.0769 54.3567 54.3567 54.6386 54.9226 55.2088 55.4972 55.4973 55.7879 56.0808 56.0808 56.376 56.6735 56.6735 56.9734 57.2757 57.5804 57.8876 58.1974 58.5097 58.8247 59.1423 59.4626 59.7856 60 2.74836 3.5028 4.3941 5.48319 6.88362 8.84799 12.1657 28.2098 30 2.89119 3.51634 4.16923 4.85244 5.56892 6.32209 7.1159 7.955 8.84485 9.792 10.8044 11.8915 13.0655 14.3413 15.7383 17.2821 19.007 20.9613 23.2155 25.8786 29.1327 33.3171 39.1865 49.0996 60 3.03457 3.84908 4.81136 5.98716 7.49911 9.6199 13.2018 30 3.17849 3.85341 4.55829 5.2959 6.06944 6.88258 7.7396 8.64551 9.60622 10.6288 11.7217 12.8955 14.1629 15.5403 17.0486 18.7153 20.5775 22.6874 25.1211 27.9963 31.5095 36.0271 42.3639 53.0663 60 3.32297 4.07 4.95255 6.03094 7.41762 9.36271 12.6478 28.5344 30 3.46801 4.24146 5.15522 6.27175 7.70746 9.72134 13.1226 29.571 30 3.6136 4.33467 5.18654 6.22745 7.56593 9.4434 12.6143 27.9487 30 3.75976 4.42027 5.20059 6.15408 7.38014 9.09994 12.0046 26.051 30 3.90649 4.6114 5.44419 6.46178 7.77027 9.60569 12.7056 27.6964 30 4.05379 4.6728 5.31928 5.99578 6.70523 7.451 8.23702 9.06787 9.94898 10.8868 11.8892 12.9657 14.1282 15.3915 16.7748 18.3034 20 21.9335 24.1634 26.7974 30 34.1309 39.9183 49.6628 60 4.20167 4.9825 5.90498 7.03216 8.48158 10.5147 13.9484 30 4.35013 5.10237 5.99107 7.07697 8.47331 10.4319 13.74 29.7372 30 4.49919 5.37875 6.41788 7.68759 9.32029 11.6105 15.4784 30 4.64884 5.3752 6.23334 7.2819 8.63023 10.5215 13.7158 29.1629 30 4.79907 5.76542 6.90708 8.30208 10.0959 12.612 16.8616 37.4484 40 4.94992 5.59081 6.26015 6.96058 7.69512 8.46726 9.28108 10.1413 11.0536 12.0246 13.0625 14.177 15.3806 16.6885 18.1208 19.7034 21.4718 23.4753 25.7863 28.5165 31.8526 36.1425 42.1598 52.3226 60 5.10137 5.79396 6.61218 7.61198 8.89759 10.7009 13.7466 28.4753 30 5.25344 6.0267 6.94024 8.0565 9.49187 11.5053 14.9057 30 5.40612 6.00361 6.62761 7.2806 7.96539 8.68524 9.44394 10.2459 11.0964 12.0017 12.9692 14.0083 15.1303 16.3497 17.6849 19.1604 20.809 22.6768 24.8313 27.3766 30.4868 34.486 40.0958 49.5703 60 5.55942 6.10673 6.67833 7.27647 7.90375 8.56314 9.25812 9.99273 10.7718 11.601 12.4873 13.4391 14.4669 15.5839 16.807 18.1585 19.6686 21.3796 23.3531 25.6847 28.5336 32.197 37.3356 46.0144 60 5.71335 6.29746 6.90749 7.54585 8.2153 8.91902 9.66072 10.4447 11.2762 12.1611 13.107 14.1228 15.2197 16.4118 17.7171 19.1595 20.7712 22.5971 24.7034 27.1917 30.2322 34.1418 39.6259 48.8882 60 5.86792 6.51493 7.19066 7.89776 8.63931 9.41883 10.2404 11.1088 12.0298 13.0101 14.0579 15.1831 16.3981 17.7186 19.1645 20.7622 22.5474 24.5701 26.9031 29.6594 33.0273 37.3581 43.4328 53.6926 60 6.02312 6.64643 7.29742 7.97863 8.69302 9.44399 10.2355 11.0721 11.9594 12.9038 13.9132 14.9972 16.1677 17.4398 18.8327 20.372 22.0918 24.0404 26.288 28.9434 32.188 36.3601 42.2124 52.0965 60 6.17895 6.82817 7.59517 8.53236 9.73748 11.4279 14.2829 28.0894 30 6.33544 7.06427 7.82544 8.62196 9.45728 10.3354 11.2608 12.2391 13.2765 14.3808 15.561 16.8285 18.1972 19.6846 21.3133 23.1131 25.1241 27.4025 30.0305 33.1354 36.9292 41.8075 48.6504 60 6.49258 7.3097 8.27506 9.45464 10.9714 13.099 16.6924 30 6.65039 7.25227 7.88087 8.53866 9.22848 9.95363 10.7179 11.5258 12.3825 13.2944 14.2691 15.3158 16.4461 17.6745 19.0195 20.5058 22.1665 24.0481 26.2184 28.7825 31.9155 35.9442 41.5952 51.1394 60 6.80885 7.51296 8.34481 9.36125 10.6683 12.5016 15.598 30 6.96798 7.76873 8.605 9.48012 10.3979 11.3626 12.3794 13.4542 14.594 15.8072 17.1039 18.4964 20 21.6342 23.4236 25.4009 27.6103 30.1135 33.0008 36.412 40.5801 45.9397 53.4575 60 7.1278 7.85352 8.71091 9.75855 11.1057 12.9953 16.1867 30 7.28829 7.95613 8.74513 9.70921 10.9489 12.6878 15.6247 29.8273 30 7.44947 8.26587 9.23038 10.4089 11.9244 14.0501 17.6402 35.7263 40 7.61135 8.18524 8.7846 9.4118 10.0695 10.761 11.4897 12.26 13.0769 13.9464 14.8757 15.8738 16.9515 18.1227 19.4052 20.8224 22.4058 24.1999 26.2693 28.7141 31.7014 35.5427 40.9309 50 60 7.77393 8.41467 9.08385 9.7841 10.5185 11.2904 12.104 12.9641 13.8761 14.8469 15.8845 16.9988 18.2021 19.5097 20.9416 22.5239 24.2918 26.2948 28.6053 31.3349 34.6702 38.959 44.9748 55.1352 60 7.9372 8.47516 9.03699 9.62492 10.2415 10.8896 11.5727 12.2948 13.0605 13.8756 14.7467 15.6823 16.6925 17.7904 18.9926 20.321 21.8053 23.4871 25.4269 27.7186 30.5189 34.1197 39.1705 47.701 60 8.1012 9.05214 10.1756 11.5483 13.3135 15.7896 19.9714 40 8.26591 8.943 9.65013 10.3901 11.1661 11.9819 12.8416 13.7504 14.7142 15.7401 16.8365 18.0141 19.2856 20.6674 22.1805 23.8525 25.7207 27.8373 30.2788 33.1633 36.6877 41.2198 47.5769 58.3136 60 8.43134 9.27722 10.2766 11.4976 13.0678 15.2703 18.9901 37.911 40 8.5975 9.18095 9.79029 10.4279 11.0966 11.7995 12.5404 13.3235 14.154 15.038 15.9828 16.9975 18.0931 19.2838 20.5877 22.0284 23.6383 25.4622 27.566 30.0515 33.0886 36.9938 42.4717 51.7235 60 8.7644 9.36576 9.9938 10.651 11.3402 12.0647 12.8283 13.6355 14.4915 15.4026 16.3764 17.4222 18.5515 19.7788 21.1226 22.6076 24.2669 26.1468 28.3152 30.877 34.0073 38.0324 43.6784 53.2142 60 8.93204 9.48543 10.0634 10.6682 11.3024 11.9691 12.6718 13.4146 14.2023 15.0408 15.9369 16.8993 17.9385 19.0679 20.3046 21.6711 23.198 24.928 26.9235 29.281 32.1615 35.8656 41.0614 49.8366 60 9.10043 9.82746 10.6864 11.7359 13.0854 14.9785 18.1756 30 9.26959 9.94608 10.6526 11.3919 12.1672 12.9823 13.8413 14.7493 15.7122 16.7372 17.8326 19.0091 20.2795 21.6601 23.1719 24.8424 26.7089 28.8237 31.2631 34.1449 37.6663 42.1943 48.5458 59.273 60 9.43951 10.2275 11.0504 11.9116 12.8147 13.764 14.7646 15.8222 16.9439 18.1377 19.4138 20.7841 22.2638 23.872 25.6329 27.5787 29.7529 32.2162 35.0575 38.4143 42.516 47.7903 55.1884 60 9.61019 10.3371 11.1958 12.2452 13.5945 15.4871 18.6837 30 9.78165 10.4826 11.2146 11.9806 12.7839 13.6284 14.5184 15.4592 16.4569 17.5189 18.6539 19.8729 21.1892 22.6196 24.186 25.9168 27.8508 30.0419 32.5694 35.5553 39.2039 43.8954 50.4763 60 9.95389 10.5563 11.1855 11.8439 12.5343 13.2601 14.0251 14.8337 15.6912 16.604 17.5795 18.6272 19.7585 20.988 22.3343 23.8219 25.4841 27.3674 29.5397 32.1061 35.242 39.2744 44.9305 54.4834 60 10.1269 10.8891 11.7895 12.8897 14.3045 16.2889 19.6406 36.2752 40 10.3008 10.9031 11.5321 12.1904 12.8807 13.6064 14.3712 15.1797 16.0371 16.9496 17.925 18.9725 20.1036 21.3329 22.6789 24.1663 25.8282 27.7111 29.8831 32.449 35.5843 39.6159 45.2711 54.8222 60 10.4754 11.1069 11.7665 12.4567 13.1805 13.9414 14.7433 15.591 16.4899 17.4468 18.4695 19.5678 20.7537 22.0426 23.4539 25.0134 26.756 28.7302 31.0075 33.6979 36.9852 41.2124 47.1418 57.1563 60 10.6509 11.379 12.1395 12.9354 13.7699 14.6473 15.5719 16.5493 17.5858 18.6891 19.8683 21.1347 22.5021 23.9883 25.6156 27.4137 29.4229 31.6993 34.3251 37.4272 41.2177 46.0917 52.9286 60 10.8271 11.4838 12.1695 12.8871 13.6397 14.4308 15.2645 16.1459 17.0805 18.0754 19.1387 20.2806 21.5136 22.8537 24.321 25.9425 27.7542 29.8069 32.1746 34.9718 38.3897 42.7848 48.9496 59.3617 60 11.0042 11.883 12.9212 14.1898 15.8211 18.1093 21.9738 40 11.1822 11.9746 12.9108 14.0547 15.5256 17.5889 21.0736 37.9255 40 11.361 12.0706 12.9089 13.9332 15.2503 17.0979 20.2183 35.3083 40 11.5406 12.1286 12.7427 13.3852 14.0591 14.7675 15.5141 16.3033 17.1402 18.0311 18.9832 20 21.1037 22.3031 23.6163 25.0674 26.6887 28.5255 30.6439 33.1462 36.2031 40.1326 45.641 54.9295 60 11.7211 12.433 13.1766 13.9546 14.7705 15.6282 16.5322 17.4878 18.5011 19.5798 20.7326 21.9707 23.3076 24.7605 26.3514 28.1094 30.0737 32.2993 34.8663 37.8991 41.6049 46.3701 53.0541 60 11.9025 12.7617 13.7767 15.0169 16.6117 18.8488 22.6269 40 12.0848 12.8021 13.6496 14.6851 16.0167 17.8844 21.039 36.2941 40 12.2679 13.0187 13.9056 14.9894 16.383 18.3378 21.6394 37.6054 40 12.452 13.0464 13.6671 14.3167 14.998 15.7141 16.4689 17.2667 18.1128 19.0134 19.976 21.0097 22.1259 23.339 24.6673 26.1351 27.7752 29.6334 31.7767 34.3089 37.403 41.3816 46.9624 56.388 60 12.6369 13.259 13.9087 14.5886 15.3016 16.0511 16.841 17.676 18.5616 19.5041 20.5115 21.5934 22.7616 24.0312 25.4215 26.9577 28.6742 30.619 32.8622 35.5124 38.7506 42.9146 48.7554 58.6202 60 12.8228 13.7126 14.7638 16.0483 17.7001 20 23.8968 40 13.0095 13.5919 14.2002 14.8366 15.5041 16.2058 16.9453 17.727 18.556 19.4384 20.3815 21.3943 22.488 23.6765 24.978 26.4161 28.023 29.8437 31.9437 34.4247 37.4562 41.3544 46.8224 56.0574 60 13.1972 13.991 14.8199 15.6874 16.5971 17.5534 18.5613 19.6267 20.7565 21.9591 23.2444 24.6248 26.1154 27.7352 29.509 31.4691 33.6591 36.1404 39.0026 42.3839 46.5156 51.8284 59.2807 60 13.3859 14.2397 15.2483 16.4808 18.0656 20.2886 24.0431 40 13.5755 14.2283 14.9101 15.6236 16.3718 17.1584 17.9873 18.8636 19.7929 20.782 21.8392 22.9745 24.2005 25.5328 26.9917 28.6038 30.4051 32.446 34.8 37.5811 40.9794 45.3491 51.4785 60 13.7661 14.5158 15.4016 16.484 17.8758 19.828 23.1252 39.0702 40 13.9576 14.625 15.322 16.0515 16.8164 17.6205 18.468 19.3638 20.3139 21.3251 22.4059 23.5666 24.8199 26.182 27.6735 29.3216 31.1632 33.2496 35.6562 38.4995 41.9736 46.441 52.7073 60 14.1501 14.9719 15.9429 17.1292 18.6548 20.7946 24.4087 40 14.3436 15.1102 16.0158 17.1224 18.5453 20.5413 23.9123 40 14.5381 15.0924 15.6714 16.2772 16.9125 17.5804 18.2843 19.0284 19.8174 20.6573 21.555 22.519 23.56 24.6913 25.9301 27.299 28.8286 30.5615 32.5604 34.9219 37.8074 41.5179 46.7225 55.5128 60 14.7336 15.4811 16.2618 17.0788 17.9355 18.8361 19.7853 20.7887 21.8527 22.9853 24.1958 25.4958 26.8996 28.4251 30.0956 31.9416 34.0041 36.341 39.0364 42.2209 46.112 51.1155 58.1339 60 14.9301 15.5733 16.245 16.948 17.6851 18.46 19.2767 20.14 21.0555 22.03 23.0716 24.1901 25.3979 26.7105 28.1479 29.7361 31.5108 33.5215 35.8407 38.5807 41.9286 46.2337 52.2724 60 15.1277 15.7058 16.3095 16.9412 17.6038 18.3002 19.0342 19.8101 20.633 21.5088 22.4449 23.4502 24.5357 25.7155 27.0073 28.4348 30.0298 31.8369 33.9213 36.3839 39.3929 43.2622 48.6895 57.856 60 15.3263 15.9002 16.4996 17.1268 17.7846 18.4761 19.2048 19.9752 20.7921 21.6617 22.5911 23.5892 24.6669 25.8382 27.1208 28.538 30.1216 31.9157 33.9852 36.4301 39.4176 43.2591 48.6476 57.7484 60 15.526 16.3732 17.3742 18.5974 20.1702 22.3763 26.1023 40 15.7267 16.4381 17.181 17.9585 18.7738 19.6309 20.5342 21.489 22.5016 23.5794 24.7314 25.9686 27.3045 28.7563 30.3461 32.1027 34.0656 36.2895 38.8546 41.8851 45.5881 50.3498 57.0288 60 15.9285 16.667 17.5394 18.6055 19.9763 21.8992 25.1467 40 16.1314 16.8879 17.7816 18.8737 20.2779 22.2477 25.5745 40 16.3354 16.9241 17.5391 18.1825 18.8573 19.5667 20.3143 21.1046 21.9427 22.8348 23.7882 24.8122 25.9179 27.1195 28.4352 29.8892 31.5137 33.3544 35.4774 37.9857 41.0505 44.9915 50.5195 59.856 60 16.5405 17.1711 17.8297 18.5188 19.2416 20 20.8007 21.647 22.5446 23.4999 24.521 25.6175 26.8016 28.0884 29.4974 31.0543 32.794 34.7649 37.0382 39.7238 43.0051 47.224 53.1406 60 16.7467 17.5346 18.4654 19.6028 21.0653 23.1168 26.5816 40 16.954 17.5362 18.1443 18.7805 19.4478 20.1492 20.8885 21.6699 22.4987 23.3807 24.3235 25.336 26.4293 27.6175 28.9186 30.3562 31.9626 33.7826 35.882 38.3622 41.3927 45.2896 50.7558 59.9878 60 17.1625 17.7117 18.2851 18.8853 19.5146 20.1762 20.8734 21.6105 22.3921 23.2241 24.1133 25.0683 26.0994 27.2201 28.4472 29.8032 31.3183 33.0349 35.015 37.3542 40.2125 43.888 49.0436 57.751 60 17.3722 17.9781 18.6108 19.2729 19.9673 20.6972 21.4665 22.2797 23.142 24.06 25.041 26.0947 27.2324 28.4688 29.8227 31.3188 32.9904 34.8843 37.0689 39.6499 42.8035 46.8587 52.5469 60 17.5831 18.3636 19.2858 20.4126 21.8615 23.8939 27.3265 40 17.7951 18.4148 19.0621 19.7394 20.4497 21.1963 21.9833 22.8151 23.6973 24.6363 25.6399 26.7176 27.8814 29.1462 30.5312 32.0616 33.7715 35.7089 37.9437 40.5838 43.8097 47.958 53.7766 60 18.0083 18.6068 19.2317 19.8858 20.5716 21.2926 22.0525 22.8557 23.7075 24.6142 25.5833 26.624 27.7478 28.9691 30.3064 31.7842 33.4353 35.3061 37.464 40 43.1117 47.1118 52.7196 60 18.2228 18.7882 19.3788 19.9968 20.6449 21.3262 22.0442 22.8032 23.6081 24.4648 25.3805 26.3639 27.4258 28.5799 29.8435 31.2399 32.8001 34.5679 36.6069 39.0158 41.9593 45.7442 51.0533 60 18.4384 19.1126 19.8166 20.5534 21.326 22.1382 22.9942 23.8991 24.8587 25.88 26.9717 28.1441 29.4101 30.7859 32.2924 33.9571 35.8172 37.9246 40.3554 43.2273 46.7364 51.2487 57.5781 60 18.6554 19.3083 19.9902 20.7038 21.4521 22.2388 23.0679 23.9443 24.8737 25.8629 26.9203 28.0558 29.2819 30.6145 32.0736 33.6859 35.4875 37.5287 39.8831 42.6646 46.0634 50.4337 56.5641 60 18.8735 19.5739 20.3053 21.0707 21.8733 22.7171 23.6064 24.5464 25.5433 26.6043 27.7384 28.9564 30.2715 31.7008 33.2659 34.9953 36.9276 39.1169 41.6422 44.6257 48.2712 52.9588 59.5342 60 19.093 19.7599 20.5479 21.5106 22.7487 24.4852 27.4181 40 19.3137 19.8602 20.4309 21.0281 21.6543 22.3127 23.0066 23.74 24.5178 25.3457 26.2306 27.1809 28.2071 29.3223 30.5435 31.8928 33.4006 35.1088 37.0792 39.4071 42.2515 45.9091 51.0395 59.7045 60 19.5358 20.3031 21.2095 22.3172 23.7414 25.7393 29.1135 45.6621 50 19.7591 20.3368 20.94 21.5713 22.2333 22.9292 23.6627 24.438 25.2602 26.1353 27.0707 28.0752 29.1599 30.3387 31.6296 33.0559 34.6497 36.4554 38.5382 40.9989 44.0056 47.8719 53.295 60 19.9838 20.7487 21.6522 22.7563 24.176 26.1675 29.5309 45.8256 50 20.2099 20.9343 21.7901 22.8358 24.1805 26.0666 29.2522 44.8805 50 20.4373 21.1927 22.0852 23.1757 24.5779 26.5448 29.8668 45.9519 50 20.6661 21.3575 22.1743 23.1723 24.4557 26.2559 29.2963 40 20.8963 21.6066 22.4459 23.4713 24.79 26.6396 29.7635 44.9528 50 21.1279 21.9705 22.9661 24.1825 25.7468 27.9409 31.6466 49.5672 50 21.3609 21.9174 22.4986 23.1068 23.7446 24.415 25.1216 25.8686 26.6607 27.5038 28.405 29.3728 30.4178 31.5535 32.7971 34.1713 35.7068 37.4464 39.4531 41.8238 44.7205 48.4453 53.6701 60 21.5954 22.2264 22.8854 23.575 24.2982 25.0584 25.8597 26.7067 27.6048 28.5609 29.5827 30.6801 31.865 33.1528 34.5629 36.1211 37.8622 39.8348 42.1101 44.7982 48.0828 52.3064 58.2308 60 21.8314 22.6413 23.5981 24.7672 26.2706 28.3794 31.941 49.1647 50 22.0688 22.7766 23.6129 24.6347 25.9486 27.7916 30.9043 45.9572 50 22.3078 23.0206 23.8628 24.8918 26.215 28.071 31.2058 46.3651 50 22.5483 23.4711 24.5612 25.8934 27.6063 30 34.0494 50 22.7903 23.4178 24.0731 24.7588 25.4779 26.2339 27.0306 27.8728 28.766 29.7167 30.7328 31.824 33.0023 34.2828 35.685 37.2345 38.9657 40.9273 43.1898 45.8628 49.129 53.3289 59.22 60 23.0339 23.7126 24.5145 25.4944 26.7543 28.5216 31.5065 45.9412 50 23.2791 24.021 24.8976 25.9686 27.3458 29.2777 32.5405 48.3189 50 23.5259 24.2287 25.059 26.0736 27.3783 29.2083 32.2991 47.2458 50 23.7743 24.4774 25.2116 25.98 26.7858 27.6329 28.5256 29.4693 30.4701 31.5353 32.6738 33.8965 35.2168 36.6517 38.2229 39.959 41.8989 44.0968 46.632 49.6271 53.2869 57.9929 60 24.0244 24.6933 25.3919 26.123 26.8897 27.6957 28.5451 29.443 30.3952 31.4087 32.492 33.6554 34.9116 36.2768 37.7717 39.4236 41.2694 43.3606 45.7728 48.6225 52.1046 56.5822 60 24.2761 24.8817 25.5142 26.176 26.8701 27.5997 28.3686 29.1815 30.0435 30.961 31.9417 32.9949 34.1321 35.368 36.7213 38.2168 39.8877 41.7808 43.9645 46.5443 49.6966 53.7501 59.4359 60 24.5296 25.164 25.8266 26.52 27.2471 28.0115 28.8171 29.6687 30.5717 31.533 32.5604 33.6637 34.8552 36.1499 37.5678 39.1344 40.885 42.8683 45.1561 47.8588 51.1613 55.4079 60 24.7847 25.3683 25.9779 26.6157 27.2846 27.9877 28.7288 29.5122 30.3429 31.2271 32.1722 33.1872 34.2832 35.4742 36.7785 38.2197 39.83 41.6545 43.7589 46.2452 49.2831 53.1896 58.6691 60 25.0416 25.9611 27.0473 28.3746 30.0813 32.4754 36.5187 56.5495 60 25.3003 25.9506 26.6298 27.3405 28.0858 28.8693 29.6951 30.5679 31.4936 32.4789 33.532 34.6629 35.8842 37.2113 38.6646 40.2705 42.0648 44.0978 46.4427 49.2131 52.5982 56.951 60 25.5607 26.1443 26.7537 27.3914 28.0601 28.7631 29.5041 30.2873 31.1179 32.0019 32.9468 33.9616 35.0574 36.2482 37.5522 38.9931 40.6031 42.4272 44.5313 47.0171 50.0544 53.9601 59.4386 60 25.823 26.5849 27.3806 28.2132 29.0864 30 30.9672 31.9895 33.0737 34.2277 35.4611 36.7856 38.2158 39.77 41.4719 43.3524 45.4534 47.8336 50.5789 53.8219 57.7837 60 26.0871 26.7448 27.4317 28.1505 28.9043 29.6967 30.5319 31.4147 32.3509 33.3473 34.4124 35.5562 36.7913 38.1336 39.6034 41.2275 43.0422 45.0983 47.4699 50.2717 53.6953 58.0976 60 26.3531 27.1468 28.0846 29.2304 30.7037 32.7704 36.2609 50 26.621 27.276 27.9601 28.6759 29.4266 30.2158 31.0475 31.9267 32.8591 33.8515 34.9122 36.0513 37.2814 38.6181 40.0819 41.6994 43.5067 45.5544 47.9163 50.7066 54.1162 58.5005 60 26.8908 27.6813 28.6151 29.7563 31.2236 33.2818 36.758 50 27.1625 27.945 28.7622 29.6173 30.5141 31.4568 32.4504 33.5007 34.6145 35.8 37.0671 38.4279 39.8973 41.4941 43.2427 45.175 47.3339 49.78 52.6015 55.9349 60 27.4362 28.0874 28.7675 29.4791 30.2255 31.01 31.8369 32.7109 33.6378 34.6244 35.6789 36.8113 38.0342 39.3631 40.8183 42.4264 44.2231 46.2587 48.6068 51.3808 54.7704 59.1291 60 27.712 28.3572 29.0311 29.7362 30.4758 31.2531 32.0725 32.9385 33.857 34.8346 35.8795 37.0016 38.2133 39.5302 40.9721 42.5655 44.3458 46.3629 48.6896 51.4383 54.797 59.1159 60 27.9897 28.934 30.0496 31.4128 33.1656 35.6244 39.777 59.9012 60 28.2695 28.8228 29.4007 30 30.6339 31.3002 32.0025 32.7448 33.532 34.3699 35.2654 36.2271 37.2654 38.3938 39.6293 40.9944 42.5196 44.2473 46.2398 48.5933 51.4679 55.1622 60 28.5514 29.3373 30.2657 31.4001 32.8589 34.9051 38.3609 55.1524 60 28.8355 29.6082 30.4152 31.2597 32.1454 33.0764 34.0576 35.0948 36.1947 37.3655 38.6168 39.9606 41.4118 42.9888 44.7156 46.6238 48.7559 51.1716 53.958 57.2498 60 29.1217 29.9004 30.8203 31.9444 33.3899 35.4174 38.8417 55.8317 60 29.4101 30.119 30.8594 31.6341 32.4467 33.3008 34.2009 35.1525 36.1616 37.2357 38.3837 39.6166 40.9479 42.3946 43.9789 45.7295 47.6856 49.9017 52.458 55.4781 59.1683 60 29.7007 30.3669 31.0627 31.7908 32.5543 33.357 34.2029 35.0971 36.0454 37.0548 38.1336 39.2922 40.5433 41.9029 43.3917 45.0368 46.875 48.9576 51.3599 54.198 57.6658 60 29.9936 30.6614 31.4503 32.4142 33.6538 35.3925 38.329 50 30.2888 31.1547 32.059 33.0053 33.9977 35.0409 36.1404 37.3026 38.5351 39.847 41.2492 42.755 44.3811 46.1482 48.0832 50.2214 52.6105 55.3174 58.4396 60 30.5863 31.5188 32.6206 33.9668 35.6978 38.1259 42.2269 60 30.8862 31.5183 32.1785 32.8694 33.5939 34.3556 35.1583 36.0068 36.9066 37.8644 38.8881 39.9875 41.1746 42.4648 43.8775 45.4385 47.1828 49.159 51.4385 54.1315 57.4221 60 31.1885 32.044 33.0548 34.2898 35.8779 38.1055 41.8678 60 31.4932 32.2972 33.247 34.4076 35.9001 37.9935 41.5291 58.627 60 31.8004 32.8454 34.0799 35.5884 37.5281 40.249 44.8443 60 32.1102 32.8731 33.7744 34.8757 36.2919 38.2783 41.6332 57.8573 60 32.4225 33.0774 33.7613 34.4769 35.2275 36.0164 36.8479 37.7269 38.659 39.6512 40.7116 41.8504 43.0802 44.4166 45.88 47.4971 49.3039 51.351 53.7123 56.502 59.9107 60 32.7375 33.3145 33.9171 34.5477 35.209 35.9041 36.6368 37.4113 38.2326 39.1068 40.0412 41.0446 42.1282 43.3057 44.5952 46.02 47.612 49.4158 51.4964 53.9544 56.9579 60 33.0551 33.6667 34.3054 34.9737 35.6747 36.4115 37.1881 38.0089 38.8795 39.806 40.7964 41.86 43.0085 44.2566 45.6233 47.1335 48.8209 50.7328 52.938 55.5433 58.7268 60 33.3754 33.954 34.5583 35.1906 35.8538 36.5509 37.2856 38.0622 38.8858 39.7625 40.6995 41.7057 42.7923 43.9731 45.2661 46.6949 48.2914 50.1002 52.1866 54.6515 57.6633 60 33.6984 34.3661 35.0635 35.7932 36.5585 37.3629 38.2108 39.107 40.0574 41.069 42.1503 43.3115 44.5654 45.9281 47.4202 49.069 50.9113 52.9987 55.4063 58.2508 60 34.0243 34.8146 35.7482 36.889 38.356 40.4137 43.889 60 34.353 35.0259 35.7287 36.4642 37.2354 38.0461 38.9006 39.8039 40.7617 41.7813 42.871 44.0413 45.305 46.6783 48.1821 49.8439 51.7006 53.8043 56.2308 59.0975 60 34.6846 35.3777 36.1016 36.8591 37.6534 38.4885 39.3686 40.2989 41.2855 42.3357 43.4581 44.6634 45.965 47.3796 48.9285 50.64 52.5525 54.7192 57.2185 60 35.0191 35.6266 36.261 36.9248 37.621 38.3528 39.1242 39.9395 40.8041 41.7244 42.7081 43.7645 44.9052 46.1449 47.5023 49.0023 50.6783 52.5773 54.7676 57.3553 60 35.3567 36.1763 37.0322 37.928 38.8673 39.8547 40.8955 41.9955 43.1622 44.4039 45.7312 47.1565 48.6956 50.3683 52.1998 54.2237 56.4851 59.0473 60 35.6973 36.4223 37.1796 37.972 38.803 39.6765 40.5972 41.5704 42.6024 43.701 44.8751 46.136 47.4976 48.9773 50.5976 52.3881 54.3886 56.6552 59.2697 60 36.041 36.8698 37.8489 39.0453 40.5838 42.7417 46.3864 60 36.3879 37.0801 37.8979 38.8972 40.1822 41.9846 45.0287 59.7499 60 36.738 37.3834 38.0575 38.763 39.5027 40.2804 41.1 41.9663 42.8851 43.863 44.9083 46.0308 47.2429 48.5601 50 51.5936 53.3742 55.3915 57.7184 60 37.0914 37.8321 38.7071 39.7763 41.1512 43.0798 46.337 60 37.4481 38.0349 38.6477 39.289 39.9616 40.6685 41.4137 42.2013 43.0365 43.9256 44.8758 45.8963 46.9983 48.1958 49.5072 50.9562 52.5753 54.4097 56.5256 59.0254 60 37.8083 38.4247 39.0685 39.7421 40.4486 41.1913 41.974 42.8014 43.6788 44.6127 45.6109 46.6829 47.8405 49.0985 50.4761 51.9982 53.699 55.626 57.8488 60 38.1719 38.7765 39.4079 40.0686 40.7615 41.4899 42.2575 43.069 43.9296 44.8456 45.8246 46.876 48.0113 49.2451 50.5962 52.0891 53.7572 55.6471 57.8271 60 38.5391 39.1715 39.832 40.5232 41.248 42.0099 42.813 43.6619 44.5621 45.5203 46.5444 47.6442 48.8319 50.1225 51.5358 53.0975 54.8425 56.8196 59.1 60 38.9099 39.536 40.1899 40.8741 41.5917 42.346 43.141 43.9814 44.8726 45.8212 46.8351 47.924 49.0997 50.3775 51.7766 53.3227 55.0502 57.0075 59.2652 60 39.2844 40.0174 40.7829 41.584 42.424 43.3071 44.2379 45.2217 46.2651 47.3757 48.5626 49.8374 51.2139 52.7098 54.3478 56.1579 58.1803 60 39.6626 40.4072 41.1848 41.9985 42.8519 43.7489 44.6944 45.6938 46.7536 47.8817 49.0874 50.3823 51.7805 53.3001 54.964 56.8026 58.857 60 40.0447 40.7878 41.6656 42.7383 44.1177 46.0524 49.3202 60 40.4307 41.1968 42.102 43.208 44.6301 46.625 49.9941 60 40.8207 41.4682 42.1444 42.8521 43.5942 44.3743 45.1965 46.0656 46.9872 47.9683 49.0168 50.1428 51.3588 52.6802 54.1272 55.7261 57.5127 59.5369 60 41.2148 41.8888 42.5927 43.3293 44.1018 44.9138 45.7697 46.6743 47.6337 48.6549 49.7463 50.9185 52.1842 53.5597 55.0659 56.7303 58.59 60 41.6131 42.4311 43.3975 44.5784 46.0969 48.2268 51.8241 60 42.0156 42.6938 43.4021 44.1433 44.9206 45.7376 46.5988 47.5091 48.4745 49.502 50.6003 51.7797 53.0533 54.4374 55.9529 57.6277 59.4989 60 42.4225 43.0998 43.9001 44.8779 46.1352 47.8989 50.8777 60 42.8338 43.445 44.0834 44.7514 45.452 46.1884 46.9646 47.785 48.6551 49.5812 50.5711 51.6341 52.7819 54.0294 55.3954 56.9048 58.5914 60 43.2497 43.8596 44.4966 45.1631 45.8622 46.597 47.3715 48.1901 49.0583 49.9824 50.9701 52.0308 53.1762 54.4209 55.7839 57.2901 58.9729 60 43.6702 44.3746 45.2067 46.2235 47.5311 49.3651 52.4626 60 44.0954 44.8728 45.7912 46.9134 48.3565 50.3806 53.7992 60 44.5256 45.06 45.6182 46.2022 46.8148 47.4587 48.1373 48.8546 49.6154 50.4251 51.2905 52.22 53.2236 54.3143 55.5086 56.8284 58.303 59.9737 60 44.9607 45.7418 46.5576 47.4113 48.3066 49.2477 50.2395 51.288 52.3999 53.5834 54.8483 56.2068 57.6737 59.2678 60 45.4009 46.0705 46.7698 47.5015 48.2689 49.0756 49.9259 50.8246 51.7777 52.7922 53.8765 55.0409 56.2983 57.6648 59.1612 60 45.8463 46.5289 47.2418 47.9879 48.7702 49.5927 50.4595 51.3757 52.3474 53.3816 54.4871 55.6742 56.9561 58.3493 59.8748 60 46.297 47.0222 47.8789 48.9258 50.2719 52.1601 55.3491 60 46.7532 47.3398 47.9524 48.5935 49.2657 49.9724 50.7173 51.5046 52.3395 53.2283 54.1782 55.1983 56.2998 57.4969 58.8077 60 47.215 47.9677 48.7537 49.5762 50.4388 51.3456 52.3013 53.3115 54.3829 55.5232 56.742 58.0509 59.4643 60 47.6826 48.4245 49.301 50.372 51.7492 53.681 56.9437 60 48.156 48.7571 49.3849 50.0418 50.7307 51.4549 52.2182 53.025 53.8807 54.7914 55.7648 56.8102 57.939 59.1657 60 48.6354 49.3261 50.1422 51.1392 52.4214 54.2198 57.2572 60 49.1211 49.7159 50.3372 50.9873 51.6691 52.3858 53.1412 53.9396 54.7864 55.6876 56.651 57.6855 58.8026 60 49.613 50.1729 50.7575 51.3694 52.011 52.6855 53.3964 54.1478 54.9447 55.7929 56.6995 57.6731 58.7244 59.8669 60 50.1115 50.6968 51.308 51.9477 52.6184 53.3236 54.0667 54.8523 55.6854 56.5721 57.5199 58.5377 59.6368 60 50.6167 51.4366 52.4053 53.5889 55.1109 57.2458 60 51.1288 51.9695 52.9627 54.1764 55.7369 57.926 60 51.6479 52.3908 53.1666 53.9785 54.8298 55.7248 56.6681 57.6652 58.7226 59.8481 60 52.1743 52.9053 53.7689 54.8241 56.181 58.0843 60 52.7081 53.4801 54.2863 55.13 56.0148 56.9448 57.9251 58.9612 60 53.2497 54.1171 55.1419 56.3941 58.0043 60 53.7991 54.4865 55.2045 55.9557 56.7436 57.5717 58.4446 59.3673 60 54.3567 55.21 56.218 57.4498 59.0337 60 54.9227 55.6861 56.5881 57.6902 59.1074 60 55.4973 56.3429 57.342 58.5628 60 56.0808 56.8788 57.8216 58.9735 60 56.6735 57.3613 58.1739 59.1668 60 57.2756 57.922 58.5971 59.3035 60 57.8876 58.5718 59.2864 60 58.5097 59.1085 59.7339 60 59.1422 59.7945 60 59.7856 60 0 0.0459216 0.0919164 0.137985 0.184126 0.230342 0.276632 0.322995 0.369434 0.415947 0.462536 0.509199 0.555938 0.572648 0.61949 0.666408 0.713402 0.760473 0.77887 0.826048 0.873303 0.920636 0.926538 0.973958 1.02146 1.06903 1.11669 1.12274 1.17048 1.21831 1.26621 1.31419 1.32764 1.37572 1.42389 1.47213 1.50634 1.55472 1.60318 1.65173 1.70035 1.73704 1.78582 1.83467 1.8836 1.93262 1.94357 1.99269 2.0419 2.09118 2.14056 2.1652 2.2147 2.26429 2.31396 2.33294 2.38273 2.4326 2.48256 2.51025 2.56035 2.61053 2.6608 2.71116 2.73208 2.78256 2.83313 2.88379 2.93027 2.9811 3.03202 3.08091 3.13201 3.18319 3.23447 3.28584 3.29891 3.35039 3.40197 3.45364 3.47187 3.52366 3.57555 3.62753 3.67231 3.72446 3.77671 3.82905 3.88149 3.89987 3.95244 4.0051 4.05786 4.11072 4.11569 4.16865 4.22171 4.27486 4.29482 4.34811 4.4015 4.45499 4.49483 4.54849 4.60225 4.65611 4.66364 4.71762 4.77169 4.82587 4.86544 4.91979 4.97425 5.02881 5.07916 5.13392 5.18879 5.24376 5.29883 5.31465 5.36986 5.42517 5.48059 5.53612 5.56664 5.62233 5.67813 5